################################################################################
# Symmetry function scaling data.
################################################################################
# Col  Name     Description
################################################################################
# 1    e_index  Element index.
# 2    sf_index Symmetry function index.
# 3    sf_min   Symmetry function minimum.
# 4    sf_max   Symmetry function maximum.
# 5    sf_mean  Symmetry function mean.
# 6    sf_sigma Symmetry function sigma.
#########################################################################################################################
#        1          2                        3                        4                        5                        6
#  e_index   sf_index                   sf_min                   sf_max                  sf_mean                 sf_sigma
#########################################################################################################################
         1          1   1.0121626298755096E+01   2.0122785802018740E+01   1.3327205944690377E+01   2.3113787827347299E+00
         1          2   2.5014890858941508E+00   9.0683434740012991E+00   4.5178582953741797E+00   1.2161366343155806E+00
         1          3   2.0985167448778146E+00   8.2275716997495287E+00   2.8522490502846480E+00   1.2079411377065097E+00
         1          4   1.2221650004111102E-22   3.3964176606972363E-14   4.2802789587642255E-17   9.9878452239358543E-16
         1          5   2.2076251445221163E-42   4.5558889079514248E-28   3.9709556972105115E-31   1.3292034387207785E-29
         1          6   2.7584050175190661E+01   6.5888797442454745E+01   4.6038258775446685E+01   7.2424489985359761E+00
         1          7   3.5267387540989805E+00   6.0411075950235880E+00   4.1882813659266693E+00   6.4272079455041953E-01
         1          8   3.6678353310335896E+00   2.3313052117797373E+01   1.4079550032785612E+01   3.1457826246104559E+00
         1          9   6.3806749667364437E+00   4.1981543160458969E+01   2.3632007063948361E+01   5.6129778258944700E+00
         1         10   1.2781051156798174E+01   4.5974080293707573E+01   2.6273931505529593E+01   6.3987787227811674E+00
         1         11   1.2749340415521983E+01   4.3382441540417318E+01   2.1820254377823471E+01   5.6917417263161081E+00
         1         12   1.0014046584111599E+01   2.6326035372648320E+01   1.3920402747346513E+01   3.4073305138808858E+00
         1         13   1.2146054761234382E+00   4.2783420719508705E+00   1.9623923666054719E+00   3.3888358884569286E-01
         1         14   3.9406248169001139E+00   5.4938926448614529E+00   5.2974177102989231E+00   1.7628765205538177E-01
         1         15   7.0198201278799476E-05   2.4371558121092804E-02   1.4836055920006688E-03   1.7278644600309105E-03
         1         16   1.9984069531326456E-11   1.4618431983955414E-06   1.3015165718389609E-08   4.5093006879162569E-08
         1         17   5.2249068187959509E+01   1.4297817908990240E+02   1.0849687386408510E+02   1.5734487800026994E+01
         1         18   7.0184836357474536E+00   4.5603570694392666E+01   3.1332666020409842E+01   6.1310022587988522E+00
         1         19   1.3462246123222293E+01   8.6626883878328982E+01   5.5162068872991050E+01   1.0875442913566193E+01
         1         20   1.6601506188747017E+01   9.7654749959650161E+01   6.0381069337159481E+01   1.3040930847170667E+01
         1         21   1.5730830381361560E+01   8.4000508809972800E+01   4.7749037800127219E+01   1.1312572369188659E+01
         1         22   1.8755047832805982E+01   6.6739895090005774E+01   3.4852639679960667E+01   8.8625213092521236E+00
         1         23   1.3789944128163615E+01   4.3389607008775513E+01   2.1038432559316220E+01   5.3792564000866001E+00
         1         24   7.0864390170516964E+00   2.0193363197888576E+01   9.4247137077458358E+00   2.7143639310208756E+00
         1         25   1.3612971005571346E+00   6.9093865507936192E+00   1.7860016961041063E+00   7.0645068575058811E-01
         1         26   2.4658117568842006E+00   4.4636629773749474E+00   3.9953849710357128E+00   4.3048295793022745E-01
         1         27   5.1891167771835294E+00   6.8873277730855902E+00   5.9659016874460322E+00   7.9579605686534005E-01
         1         28   3.4000690494523922E+00   1.2390651798544752E+01   5.3403988676333540E+00   1.9068341201517027E+00
         1         29   2.9390635607643880E+01   6.2501483780404051E+01   3.8131369697087244E+01   7.3678311728019361E+00
         1         30   3.5068548409403939E-02   6.0386674412618930E+00   5.4186924295732608E-01   9.8590254553182510E-01
         1         31   4.3350279842229171E-04   5.8735374432208074E+00   3.5641990765233905E-01   8.3908427930871021E-01
         1         32   1.5366959670006100E+01   3.4424134232332932E+01   1.9636383028040658E+01   4.3255058276761087E+00
         1         33   1.0581002345924071E-06   5.6667552375347920E+00   2.4175408253637035E-01   7.0156390975368521E-01
         1         34   7.1918913491855152E+00   2.0012987703998053E+01   1.0498424213600513E+01   2.9711401991586861E+00
         1         35   1.6040740757669393E+01   3.4235517394194787E+01   2.0222580412436351E+01   3.8830626677879416E+00
         1         36   4.9714314395409778E+00   1.4274929274525254E+01   7.4897972377795909E+00   2.0887131936793844E+00
         1         37   1.3914523367954017E+00   4.7479796971542356E+00   2.0560832617210321E+00   6.5531073069701840E-01
         1         38   7.1225948150810012E+00   1.5540699156756991E+01   8.7854149543769271E+00   1.8525148293858049E+00
         1         39   1.3626797231433937E-07   2.1009651288616338E+00   7.6679190979860104E-02   2.3590414272215654E-01
         1         40   6.6810915503532113E+00   1.4169556533244617E+01   8.2308860736908134E+00   1.4373726788463057E+00
         1         41   2.7507066330802561E-03   8.7312376234607414E-01   5.3630842745538733E-02   1.1597356949800086E-01
         1         42   2.2186447294411891E-05   8.5557518898655083E-01   3.7548767362215893E-02   1.0080834323227819E-01
         1         43   2.2129844582316721E-01   6.5499947013434068E-01   2.9748423148809522E-01   7.0139565447410068E-02
         1         44   1.1722480874109929E-09   1.9764963502718400E-01   5.2117410587070815E-03   1.8035584069203078E-02
         1         45   4.1865238755042133E-01   1.5687104150095574E+00   7.8913658277358123E-01   2.2641769166631900E-01
         1         46   4.6101733444655665E-02   1.3626403832224185E-01   6.0202858415432256E-02   1.2505270516089682E-02
         1         47   4.1795859763533915E-05   2.3049432254868735E-02   8.3437688469390847E-04   2.2004545884330056E-03
         1         48   3.4387100815382154E-01   1.0393801989837945E+00   4.8301818659377155E-01   1.1414873806131688E-01
         1         49   7.8269531108463741E-02   3.8060276174105312E-01   1.7071318621534870E-01   5.4393632893167239E-02
         1         50   4.3348041654322081E-03   1.5685144945298664E-02   5.7235712450725978E-03   1.3689488207101592E-03
         1         51   2.5147197625937368E-06   7.7024773840608741E-04   2.1453399741122029E-05   5.8646018425936674E-05
         1         52   2.7544457307258671E-02   1.3273205227729123E-01   4.7533381058307962E-02   1.4585756594709162E-02
         1         53   2.8254414186431651E-09   7.1940169941226339E-04   1.3487151294516833E-05   5.1534019987671625E-05
         1         54   1.2183960340003719E-13   6.9853902234505395E-04   9.9908571899704693E-06   4.4293167274336171E-05
         1         55   6.2248394281761608E-08   6.8591096941294469E-06   1.6569963904305955E-07   2.9788023265278517E-07
         1         56   4.9890078321686690E-12   4.2429781349627296E-06   4.4248493777149442E-08   2.2764775984880552E-07
         1         57   1.3263520109242777E-16   3.4919690413065603E-06   3.2434606949513153E-08   1.8237001731893617E-07
         1         58   2.2428093687437705E-10   8.1584991776592443E-09   4.3791147230297358E-10   3.2210656181601653E-10
         1         59   1.3858385356682983E-06   4.8704625132249879E-05   5.7358677041145622E-06   3.4397142905672176E-06
         1         60   9.9532858303456043E-15   4.7673441233534406E-09   1.0038086040992645E-11   1.2510266505395789E-10
         1         61   5.2110508867737776E-21   1.8921953398297981E-09   6.1785505747115984E-12   6.1164045137398384E-11
         1         62   2.4576759404978924E-11   3.6030695163272428E-09   1.5375246040947858E-10   1.5776704669642399E-10
         1         63   3.7785324895498534E-14   1.8986960573349786E-12   9.3032452492916489E-14   8.8532430902964416E-14
         1         64   1.6727630818213074E-18   1.3232126796682711E-13   1.2055261904485131E-16   3.2553017369477232E-15
         1         65   4.7879587045021331E-27   5.2516371598225218E-14   4.0793473103076184E-17   1.2805074250452205E-15
         1         66   2.8918633272484969E-11   1.1610859495050545E-08   4.7045793107487295E-10   5.0387457456185106E-10
         1         67   1.4131478669852089E-17   4.6398082445213734E-14   4.3805406456618591E-16   1.5046253871849842E-15
         1         68   2.2459917688675937E-20   2.4189308152129669E-17   2.6263526744345342E-19   8.0089118308549988E-19
         1         69   2.4318819163212432E-24   1.1839950460592324E-20   2.6803960522302286E-23   3.1840488326340585E-22
         1         70   4.7600367534161475E-33   4.6894316229647523E-21   2.8246570076560490E-24   1.1391027895404995E-22
         1         71   5.0349962724052250E-30   7.1657133457478780E-25   1.4707535213420179E-27   2.1339895041131984E-26
         1         72   9.3388673311413517E-34   2.9895915308402087E-29   7.3565404714489510E-32   8.9644899948995536E-31
         1         73   4.4857884839251903E-42   5.9021165437456826E-32   3.6236673027655814E-35   1.4340683485735771E-33
         1         74   3.7276245046943808E-27   4.4967515791116680E-21   7.9197375398679683E-24   1.3356047676886764E-22
         1         75   1.7506252127832471E+02   1.6163768218327648E+03   7.7820731440861903E+02   2.6526599111587853E+02
         1         76   1.0000878576307123E+03   3.8135103550221002E+03   2.3849880776460732E+03   5.0625717579060932E+02
         1         77   1.0840213529321668E+01   4.7794172438853832E+02   1.6607551456898278E+02   8.7890478494569706E+01
         1         78   7.2434574227979431E+02   2.3001497585772918E+03   1.5178790546489486E+03   2.7010093612182953E+02
         1         79   1.7354914059773574E+00   2.5097901679993802E+02   7.7065898735017043E+01   5.1780285010954834E+01
         1         80   5.4711553185553441E+02   1.5593360119860802E+03   1.0717344490011103E+03   1.6982712072530228E+02
         1         81   1.9570085436693790E-01   1.5145468087046771E+02   3.8066673048542384E+01   3.1565213089237570E+01
         1         82   3.6424915282085055E+02   9.4949255507982457E+02   6.9550163464104116E+02   9.7940726463543086E+01
         1         83   1.3543629667907339E+02   1.2118515478969575E+03   5.6373282601600170E+02   1.9612367752679614E+02
         1         84   8.0744450971733013E+00   3.6492696592038470E+02   1.2069812414095716E+02   6.7647199227032885E+01
         1         85   5.7941917882822167E+02   1.7100221772482582E+03   1.1452910018551981E+03   1.9783301742863421E+02
         1         86   2.9157815242020769E+02   7.1841683753048540E+02   5.3035056630613042E+02   7.2737241278312865E+01
         1         87   5.8679615888986041E+02   1.8889619454196018E+03   1.1734739494880962E+03   2.3578589980911210E+02
         1         88   7.6033608985272960E-01   1.3433015576986287E+02   3.6270453007236270E+01   2.8863504442681517E+01
         1         89   3.2083722613023087E+02   7.8064160290582095E+02   5.5132064383614409E+02   8.2079496009763943E+01
         1         90   8.8805234394074659E-02   9.0409678579313336E+01   1.8348772404713916E+01   1.8386269314398607E+01
         1         91   5.9955419246542448E+01   4.5184400345586823E+02   1.8768600475441184E+02   7.0044912500794425E+01
         1         92   2.8529083808247191E+02   7.0303394234953453E+02   4.4750195824382649E+02   7.2185110293681674E+01
         1         93   1.4104822669747688E+02   2.8626784268149322E+02   2.1069751567343675E+02   2.7984799717123856E+01
         1         94   2.1055160261407553E+02   5.6668180170344738E+02   3.2236947190882165E+02   6.1570639323561323E+01
         1         95   1.1671017075453234E+00   6.3392667341766256E+01   1.6510904246063010E+01   1.3607986426972227E+01
         1         96   1.1499956895521090E+02   2.5264614643100933E+02   1.6121581141897678E+02   2.4976311581223538E+01
         1         97   1.1006450671930214E-02   3.7014496237575109E+01   4.5558863355678509E+00   6.5887832826755401E+00
         1         98   7.4634201062686742E+01   1.4945260097033611E+02   1.0351451735783451E+02   1.5420267567897906E+01
         1         99   1.2523236743914554E+01   7.1454473884861400E+01   2.7864857386252012E+01   1.1232732849573093E+01
         1        100   9.1396524927314275E+01   2.3084368121340233E+02   1.3174885929928814E+02   2.5623184763758026E+01
         1        101   3.5406965361247156E-01   2.5697311843220692E+01   5.2509670163039557E+00   5.4147116350346929E+00
         1        102   2.4805232857534481E-02   2.1591271511404628E+01   2.8752410716411694E+00   4.0329134573586645E+00
         1        103   4.9308903997228434E+01   1.0941348185607954E+02   6.7663727294062454E+01   1.2287392068942715E+01
         1        104   1.5767846576258339E-03   1.8688191771759698E+01   1.6492423186594629E+00   3.0138474643046300E+00
         1        105   4.1222253210558772E+00   1.8391370906907145E+01   7.7019044770954688E+00   3.0509137023697286E+00
         1        106   3.3552730145381886E+01   7.3792591992689083E+01   4.5516938999125202E+01   8.9227635517941657E+00
         1        107   7.3422409268627337E-02   8.5750259094112309E+00   1.2168625596103082E+00   1.6244873801198492E+00
         1        108   2.4951021591553133E+01   5.3187495097582371E+01   3.3156924579626043E+01   6.4621002875342013E+00
         1        109   2.8599793479953295E-03   7.9038781237658124E+00   7.3154710836317882E-01   1.3022686779931312E+00
         1        110   8.7356855067347638E-05   7.2363238644856889E+00   4.5332597898507748E-01   1.0346074362496540E+00
         1        111   1.0197732324835703E+01   2.4176729191975539E+01   1.3835998255435491E+01   3.3986557795847077E+00
         1        112   1.0680156918001467E+00   4.0144466540396921E+00   1.6873663308961959E+00   5.8921186284172578E-01
         1        113   9.2180587884070110E-03   1.9916362374419858E+00   1.8418567740248504E-01   3.1867694698024979E-01
         1        114   7.6198643001291746E+00   1.6404636119501987E+01   9.5954377547029548E+00   1.8556122489286841E+00
         1        115   1.6917073231530077E-04   1.9152817260761832E+00   1.2208338687120227E-01   2.6988024866101684E-01
         1        116   2.4025597613849525E+00   6.8941182837426878E+00   3.6597796460042713E+00   1.0016570465610892E+00
         1        117   2.0020389954749440E-01   6.3886440155229962E-01   2.7764150240895918E-01   7.2894284509524107E-02
         1        118   2.1353862726167798E+00   4.7900761357310229E+00   2.6219571768019838E+00   4.8705907057615833E-01
         1        119   1.0029254250326327E+00   2.6658639085232445E+00   1.4043770463242748E+00   3.2067775711183705E-01
         1        120   9.0227793435074899E-09   2.2955917859242941E-01   7.2131650676927409E-03   2.3140276438190287E-02
         1        121   6.8266649031461116E-08   9.8962134696353662E-03   2.7361828605764892E-04   8.7649209823597587E-04
         1        122   1.3027491417578992E-11   9.6064897739000718E-03   2.0047475144806904E-04   7.5473377986652395E-04
         1        123   3.9521265133152894E-07   7.9014608908379121E-05   2.2121647562694833E-06   5.6879940497052984E-06
         1        124   9.2012913477361100E-04   9.7089387983567109E-03   2.8732187686955862E-03   1.1960485810165455E-03
         1        125   3.0216649093140365E-06   3.6059752078120817E-05   5.9828883231269457E-06   2.7589496879742923E-06
         1        126   2.1450931110860506E-09   1.3662619274254355E-07   4.3760591116292789E-09   4.6946248947172015E-09
         1        127   1.0004273204509493E-13   8.2943024781621316E-08   3.8614586201212968E-10   2.7709486869942486E-09
         1        128   4.2902211627951167E-19   3.6284988415479064E-08   2.7192461100922796E-10   1.8510775313285533E-09
         2          1   1.4473506294430495E+01   2.3387886839415390E+01   1.9013384139790364E+01   2.5901700122331852E+00
         2          2   1.0073826296247621E+00   6.0115661220265455E+00   3.8262662943607526E+00   1.1798945744953719E+00
         2          3   3.6900249529705027E+00   1.2387138468361037E+01   8.8077569886933365E+00   2.4635569465654399E+00
         2          4   3.9341374358893555E+00   9.9007113030501603E+00   7.2585240769126518E+00   1.7772103897537694E+00
         2          5   3.9023270621946363E-06   3.8413535672071592E-04   6.0880419571858315E-05   5.8781330062052469E-05
         2          6   8.8214977894145061E+00   1.5032067636548529E+01   1.2634270615759021E+01   2.0904277040325256E+00
         2          7   3.3997119774031381E-25   1.4904892065101889E-10   4.3305023092208112E-12   8.3381846559409430E-12
         2          8   8.8608475005550769E-47   4.4298056353329725E-21   2.5641018333214716E-23   1.7909194232389824E-22
         2          9   2.7095283561095646E-82   3.2100013326893595E-39   5.9466456520921617E-42   1.2508791901030109E-40
         2         10   3.3684229609127073E+01   6.4894887304766840E+01   5.0111188530040970E+01   5.2891105644162932E+00
         2         11   4.1901752400224996E+00   2.3934827479367900E+01   1.2627714963082648E+01   3.1098963337503629E+00
         2         12   6.8590698588896988E+00   4.0160166386703281E+01   2.0411542440556612E+01   5.3799449332679163E+00
         2         13   5.3076874774001128E+00   3.9358441850368052E+01   1.9946426642100857E+01   5.0705080900089294E+00
         2         14   7.5190844458473522E+00   3.2742894361584156E+01   2.2149825438564591E+01   6.4709134629325780E+00
         2         15   1.0591379402342342E+01   2.4995416431300089E+01   1.5953254657458215E+01   4.0098885455044027E+00
         2         16   1.0331548147881592E-01   3.3556195794772812E+00   5.0846366584461489E-01   4.8881166497225426E-01
         2         17   8.0123524849931879E-13   6.1052482719677040E-05   5.4589373819492863E-06   7.7414395813646651E-06
         2         18   5.7863387603260279E+01   1.4315253454738041E+02   1.0807619474118397E+02   1.3453438425195039E+01
         2         19   4.7223128037698771E+01   1.0379669781829791E+02   8.0133913582251651E+01   9.1780768233911427E+00
         2         20   8.7849034838868807E+00   4.8588650611979574E+01   3.0629406545766980E+01   6.4915236362969564E+00
         2         21   1.4380191739441338E+01   9.0374130047247746E+01   5.1748965394540328E+01   1.1534787178219927E+01
         2         22   1.8608557749484515E+01   9.9945225984221153E+01   5.4360655702129378E+01   1.2972522009756306E+01
         2         23   1.2171790560703551E+01   7.8217306761963812E+01   3.9371741840714286E+01   1.0406045766232641E+01
         2         24   7.3832076467805470E+00   4.8812841939233842E+01   2.8332565282644463E+01   7.7594863845484978E+00
         2         25   1.2400340999077773E+01   3.6938260583034825E+01   2.5311434422258181E+01   6.5611605499418699E+00
         2         26   6.0235328801629811E+00   1.7583475160358795E+01   1.0898773940445578E+01   3.1069171664825093E+00
         2         27   8.5004329383629873E+00   1.7314251678406691E+01   1.4406541220762405E+01   2.6182066255987162E+00
         2         28   7.0810879087364889E+00   1.8741322137980728E+01   1.1852481306097287E+01   3.0666869152531722E+00
         2         29   7.7129900656421557E-01   7.7131204044769497E+00   1.6622328113158580E+00   1.2460901459324190E+00
         2         30   2.0344959172821657E-09   1.6230425691898065E-03   2.0599855562444623E-04   2.7794745244054994E-04
         2         31   1.2818300152911940E+01   4.9402478608563726E+01   2.3585387224745809E+01   8.0612013082861047E+00
         2         32   3.4235359548190374E+01   8.2449389274872459E+01   5.0187716993758109E+01   1.0681124966557091E+01
         2         33   3.8019968897952170E+00   1.9046284690166750E+01   7.0806487408637979E+00   3.4741326952040446E+00
         2         34   8.3729942371173749E-01   7.5576246561449665E+00   2.3965283238044202E+00   1.5249355396177600E+00
         2         35   1.5818579850356471E+01   3.4067935370992821E+01   2.1769016073356191E+01   3.7320786718652332E+00
         2         36   5.1358643456355359E-02   1.8152025548871722E+00   4.0767786891782054E-01   3.5794447823343145E-01
         2         37   8.2797702298790359E+00   1.8239146671150763E+01   1.1865823360341848E+01   1.6983641811487509E+00
         2         38   1.3060674097453148E+01   3.6126698331766804E+01   1.9685649485331687E+01   4.5487259383569532E+00
         2         39   1.7260937653739044E+00   9.1224107729571333E+00   3.0188232708814016E+00   1.6062471211690101E+00
         2         40   9.2003698859024343E+00   2.2518508950612670E+01   1.2535596920960682E+01   2.6659832647329482E+00
         2         41   3.8434905028994906E+00   8.2664841274770975E+00   4.8916599727081014E+00   7.2119131495768218E-01
         2         42   2.4456102175109016E+00   1.1789713702026779E+01   4.1949325068650927E+00   1.8211940793273662E+00
         2         43   2.9839991779657931E+00   7.4847898326009163E+00   3.9358418897764857E+00   8.2582800404508505E-01
         2         44   6.9078922344048433E-03   3.1999471849988409E-01   6.9829291618071276E-02   6.5841266414415997E-02
         2         45   1.8461995500001656E+00   4.0427657305496130E+00   2.1876648920268913E+00   3.7003438642446113E-01
         2         46   1.4959769626681274E+00   5.7025993181316199E+00   2.4378270439863452E+00   7.4748425560276499E-01
         2         47   1.0401347575645943E+00   3.7233311541302432E+00   1.5953470717187677E+00   4.6194264769701116E-01
         2         48   5.0242513463687966E-01   1.3858956555289303E+00   6.5346161152617888E-01   1.4689070281667713E-01
         2         49   7.5807650749404563E-03   1.2920303980853654E-01   2.3143508431562668E-02   1.9966479280839056E-02
         2         50   1.1084643302291491E-01   5.2192683337796930E-01   1.8678191207035330E-01   6.7226270537536492E-02
         2         51   3.3748687071561426E-04   2.0696731855165105E-02   3.3140981596185295E-03   3.6944137251696254E-03
         2         52   1.1290056379012234E-02   9.4275479383490693E-02   2.4195258349176810E-02   1.2403020635524833E-02
         2         53   1.7305115886496621E-03   3.1790675594520042E-02   4.4644487528141532E-03   3.6628412857495035E-03
         2         54   2.6599767602044069E-03   2.6003560235236683E-02   7.2674154499003767E-03   3.7317217022198226E-03
         2         55   5.5137763436428621E-05   1.9455871251405619E-03   2.0303981872495932E-04   1.5451450948856542E-04
         2         56   1.1537485062997803E-04   2.4363233894997326E-03   4.1554645132735698E-04   2.8764719790452407E-04
         2         57   6.1851296296930832E-08   7.0781663897913856E-06   4.3654384827629262E-07   3.8291331468402875E-07
         2         58   1.5351503555990220E-07   1.2071545470550342E-05   1.1188624593196286E-06   1.0544797946259072E-06
         2         59   3.5762562666404716E-09   1.0667937216284659E-06   5.1812390451040723E-08   5.9515309810240771E-08
         2         60   1.9032459467811452E-08   7.8657151196086425E-06   6.8031458644265957E-07   7.0560956374226644E-07
         2         61   4.6139735753886477E-12   1.5985372414209700E-09   5.1182221106524462E-11   7.5181580494208815E-11
         2         62   1.1134173333944788E-11   6.8130049530738589E-09   2.0207378778440100E-10   3.0009708133348608E-10
         2         63   5.5455247902697019E-14   2.0304365778459680E-10   5.8868946795070762E-12   1.0397887782485426E-11
         2         64   5.9676946129727416E-15   2.8163147577291321E-11   6.9781525533927691E-13   1.1965127861550642E-12
         2         65   1.0153805899182271E-13   3.4662648604478800E-09   9.5135361213621058E-11   1.4947416939905444E-10
         2         66   5.3168067040242453E-18   1.2113770310133003E-14   8.3474201085112268E-17   4.1542621289017910E-16
         2         67   6.2020753064426338E-18   8.9478899601517172E-14   5.3225994098062994E-16   2.3575877964859526E-15
         2         68   7.3984228580182864E-21   4.9648536038784650E-15   2.5783402190023135E-17   1.6338164781716824E-16
         2         69   2.4403680041035719E-22   1.4096708593737907E-16   9.2599202603746927E-19   4.7915363191245107E-18
         2         70   1.9866251415229010E-21   4.6875972794653445E-14   2.6415105086235880E-16   1.2096774848103159E-15
         2         71   3.1355324445870219E-27   1.5800080772260662E-22   3.4907662934089595E-25   5.7483190179495252E-24
         2         72   5.4775985004649741E-31   6.4621639828220432E-23   8.6836796140074829E-26   2.0471547775243195E-24
         2         73   4.0176307108153840E-29   2.3980060027530853E-21   2.6546540092571294E-24   5.5643919810624727E-23
         2         74   8.7515658327520268E-33   1.9620203922887848E-23   2.6878220190689848E-26   6.2108232095321150E-25
         2         75   9.7778705046119641E-34   1.8093126988737740E-24   2.6045830883229295E-27   5.7204589617810570E-26
         2         76   4.6810963565115640E+02   1.6273364366756598E+03   9.8838387215891737E+02   2.1970360360706488E+02
         2         77   9.2121501874993976E+02   3.7594458606230287E+03   2.3600164923238335E+03   4.4731328639080999E+02
         2         78   1.3216519198935251E+02   4.1959047942456505E+02   2.7726175415414554E+02   6.7742018604925093E+01
         2         79   5.8014664165849854E+02   2.2612064898200506E+03   1.4234992231711760E+03   2.3960260757817684E+02
         2         80   5.0601776022165950E+01   2.2785649176493422E+02   1.4645575304464433E+02   4.9668657207782836E+01
         2         81   4.1761614265978903E+02   1.5383546886590996E+03   9.7736035909953534E+02   1.5604145349933597E+02
         2         82   1.0586999415987375E+01   1.4561456858265925E+02   8.0597407466035506E+01   3.5425867626183063E+01
         2         83   2.7489076036613181E+02   9.4453628288902769E+02   6.1407406912601118E+02   9.9519598852245366E+01
         2         84   3.6745411540864546E+02   1.2354461575868206E+03   7.5444291298432518E+02   1.6607618926614379E+02
         2         85   1.0351976835296642E+02   3.2617416586257912E+02   2.1597031157629664E+02   5.4490755409989880E+01
         2         86   3.3260899103704099E+02   1.1566128130859270E+03   7.4706705023452821E+02   1.1763954681398002E+02
         2         87   2.1616153450545139E+02   7.1693140977987366E+02   4.6929230006241795E+02   7.7092994720994938E+01
         2         88   5.5601421902847005E+02   1.8143148536867529E+03   1.2158282837247498E+03   2.1469788657462593E+02
         2         89   3.3989697704091827E+02   1.0974142106713855E+03   7.4030892342638947E+02   1.1784349867066283E+02
         2         90   2.8917077138598884E+01   1.3073753623168790E+02   8.0210320866486214E+01   2.9421062375926574E+01
         2         91   6.3817455833434122E+00   8.3164557635065250E+01   4.3625749769726497E+01   2.0614759952650040E+01
         2         92   1.5077270596296350E+02   4.8149530101969708E+02   3.2058395516377755E+02   5.3972676577306650E+01
         2         93   1.6253541856254162E+02   4.8205254025612726E+02   3.1207405289734913E+02   6.9531231553115944E+01
         2         94   4.5126621514452488E+01   1.4065433652077186E+02   9.3709861952438217E+01   2.6615943254194573E+01
         2         95   2.0755571186982229E+02   6.0742935310694895E+02   4.4335957341055706E+02   6.9819017254609378E+01
         2         96   1.4497313530751379E+02   4.3331621938885490E+02   3.0742423949627477E+02   4.8010382036551754E+01
         2         97   8.7093206011435441E+01   2.4235808586372445E+02   1.6348666538793825E+02   3.8104809109023783E+01
         2         98   1.9987526455675447E+02   5.3566182022021974E+02   3.7290269448896350E+02   6.4567053930292161E+01
         2         99   9.2552046942212307E+00   4.4281801636277450E+01   2.4817045660458138E+01   1.0336155531856573E+01
         2        100   7.9156899838502511E+01   2.1700214997291960E+02   1.5915121746261030E+02   2.4764446066218639E+01
         2        101   2.0724919327385050E+00   2.6423919560688340E+01   1.2267742065982320E+01   6.4923884104078677E+00
         2        102   4.7460440981394775E+01   1.4174877785434987E+02   9.6651988052589033E+01   1.6866605570083223E+01
         2        103   3.9301002467486079E+01   1.0911048625472174E+02   7.3200983007628551E+01   1.8590416220499886E+01
         2        104   1.0293848255788980E+02   2.4195480179221354E+02   1.6316255030855507E+02   2.8732639548590516E+01
         2        105   1.0846956832379286E+01   4.2823739557708940E+01   2.2415048103777767E+01   8.1194020970576073E+00
         2        106   5.6590220627397031E+01   1.4538337200180914E+02   1.0086361095533985E+02   1.6320334823000490E+01
         2        107   3.7624391685441831E+00   2.1258202673764870E+01   1.0178464549703442E+01   4.7295730180690327E+00
         2        108   3.8611831745953175E+01   9.6304040429828120E+01   7.0011126359098768E+01   1.0573241620040017E+01
         2        109   7.6698862810728574E-01   1.0222746299551408E+01   4.3195908536771510E+00   2.4997519120945388E+00