begin
comment   oxalac_opt-QR-15-20285-3
lattice   6.2086819999999996E+00 0.0000000000000000E+00 0.0000000000000000E+00
lattice   2.7084464485170270E+00 5.5867745625395964E+00 0.0000000000000000E+00
lattice   9.6792788185846068E-01 6.0642783155590818E-01 1.0979447098585400E+01
atom   6.4129545986920728E+00 4.0174582798324288E+00 5.9499420064779622E+00 O 0.0 0.0 -6.1260300000000001E-01 -3.8408100000000001E-01 -1.6783999999999999E-01
atom   8.3432346500877994E+00 5.2277163983262502E+00 6.0522879107576637E+00 O 0.0 0.0 -6.9172299999999998E-01 -4.3503799999999998E-01 7.6876400000000000E-01
atom   8.2378471731476601E+00 5.1610615749853421E+00 8.7550338438674959E+00 O 0.0 0.0 6.6198000000000001E-01 4.1501800000000000E-01 1.4743899999999999E-01
atom   6.3076082949040719E+00 3.9509808796561496E+00 8.6527929031020534E+00 O 0.0 0.0 7.8029700000000002E-01 4.8911399999999999E-01 -7.9327700000000001E-01
atom   8.2410044443677162E+00 5.1630523549380420E+00 5.0788546325703949E+00 H 0.0 0.0 4.8752999999999998E-02 3.1648999999999997E-02 -7.8788899999999995E-01
atom   6.4099245712147965E+00 4.0154714461002818E+00 9.6261178141464541E+00 H 0.0 0.0 -5.3055999999999999E-02 -3.3598999999999997E-02 6.9926999999999995E-01
atom   7.2902772870983963E+00 4.5673967163059954E+00 6.5826987418054754E+00 C 0.0 0.0 1.2020540000000000E+00 7.5387199999999999E-01 -7.8563999999999995E-02
atom   7.3605082784491707E+00 4.6111129071204155E+00 8.1221687413971164E+00 C 0.0 0.0 -1.3493999999999999E+00 -8.4464600000000001E-01 2.5002999999999997E-01
atom   3.4721017316834146E+00 2.1757441142630753E+00 5.0295050921074376E+00 O 0.0 0.0 6.1260300000000001E-01 3.8408100000000001E-01 1.6783999999999999E-01
atom   1.5418216802876881E+00 9.6548599576925398E-01 4.9271591878277361E+00 O 0.0 0.0 6.9172299999999998E-01 4.3503799999999998E-01 -7.6876400000000000E-01
atom   1.6472091572278207E+00 1.0321408191101629E+00 2.2244132547179034E+00 O 0.0 0.0 -6.6198000000000001E-01 -4.1501800000000000E-01 -1.4743899999999999E-01
atom   3.5774480354714133E+00 2.2422215144393500E+00 2.3266541954833464E+00 O 0.0 0.0 -7.8029700000000002E-01 -4.8911399999999999E-01 7.9327700000000001E-01
atom   1.6440518860077709E+00 1.0301500391574625E+00 5.9005924660150049E+00 H 0.0 0.0 -4.8752999999999998E-02 -3.1648999999999997E-02 7.8788899999999995E-01
atom   3.4751317591606896E+00 2.1777309479952227E+00 1.3533292844389353E+00 H 0.0 0.0 5.3055999999999999E-02 3.3598999999999997E-02 -6.9926999999999995E-01
atom   2.5947790432770907E+00 1.6258056777895082E+00 4.3967483567799244E+00 C 0.0 0.0 -1.2020540000000000E+00 -7.5387199999999999E-01 7.8563999999999995E-02
atom   2.5245480519263164E+00 1.5820894869750892E+00 2.8572783571882843E+00 C 0.0 0.0 1.3493999999999999E+00 8.4464600000000001E-01 -2.5002999999999997E-01
atom   3.9564229066530276E+00 2.4783878438291786E+00 1.0519228641400138E+01 O 0.0 0.0 6.1284700000000003E-01 3.8368999999999998E-01 1.6783899999999999E-01
atom   2.0253368210145086E+00 1.2694162477816151E+00 1.0416882737120437E+01 O 0.0 0.0 6.9321600000000005E-01 4.3265700000000001E-01 -7.6876599999999995E-01
atom   2.1312887459396750E+00 1.3351701478565661E+00 7.7141368040106038E+00 O 0.0 0.0 -6.6222800000000004E-01 -4.1462700000000002E-01 -1.4744199999999999E-01
atom   4.0621972192442630E+00 2.5441820932119441E+00 7.8163777447760463E+00 O 0.0 0.0 -7.8051099999999995E-01 -4.8876599999999998E-01 7.9327400000000003E-01
atom   1.1601921820932644E+00 7.2676974923303495E-01 4.1086891672230530E-01 H 0.0 0.0 -4.9748000000000001E-02 -3.0062999999999999E-02 7.8788800000000003E-01
atom   3.9595325294867463E+00 2.4802476343077720E+00 6.8430528337316447E+00 H 0.0 0.0 5.3378000000000002E-02 3.3084000000000002E-02 -6.9926999999999995E-01
atom   3.0788512114895719E+00 1.9288468504979914E+00 9.8864719060726252E+00 C 0.0 0.0 -1.2027380000000001E+00 -7.5278299999999998E-01 7.8566999999999998E-02
atom   3.0088767174000108E+00 1.8847212608436266E+00 8.3470019064809833E+00 C 0.0 0.0 1.3486959999999999E+00 8.4576899999999999E-01 -2.5002600000000003E-01
atom   5.9286334237224594E+00 3.7148145502663259E+00 4.6021845718526216E-01 O 0.0 0.0 -6.1284700000000003E-01 -3.8368999999999998E-01 -1.6783899999999999E-01
atom   7.8597195093609793E+00 4.9237861463138888E+00 5.6256436146496358E-01 O 0.0 0.0 -6.9321600000000005E-01 -4.3265700000000001E-01 7.6876599999999995E-01
atom   7.7537675844358107E+00 4.8580322462389338E+00 3.2653102945747965E+00 O 0.0 0.0 6.6222800000000004E-01 4.1462700000000002E-01 1.4744199999999999E-01
atom   5.8228591111312182E+00 3.6490203008835604E+00 3.1630693538093535E+00 O 0.0 0.0 7.8051099999999995E-01 4.8876599999999998E-01 -7.9327400000000003E-01
atom   8.7248641482822222E+00 5.4664326448624694E+00 1.0568578181863094E+01 H 0.0 0.0 4.9748000000000001E-02 3.0062999999999999E-02 -7.8788800000000003E-01
atom   5.9255238008887412E+00 3.7129547597877326E+00 4.1363942648537551E+00 H 0.0 0.0 -5.3378000000000002E-02 -3.3084000000000002E-02 6.9926999999999995E-01
atom   6.8062051188859147E+00 4.2643555435975129E+00 1.0929751925127753E+00 C 0.0 0.0 1.2027380000000001E+00 7.5278299999999998E-01 -7.8566999999999998E-02
atom   6.8761796129754762E+00 4.3084811332518775E+00 2.6324451921044156E+00 C 0.0 0.0 -1.3486959999999999E+00 -8.4576899999999999E-01 2.5002600000000003E-01
energy   -4.1281242915774330E-01
charge   0.0000000000000000E+00
end
begin
comment   oxalac_opt-QR-70-129118-3
lattice   9.2209000000000003E+00 0.0000000000000000E+00 0.0000000000000000E+00
lattice   -7.2591752425635792E-01 9.1922815752117568E+00 0.0000000000000000E+00
lattice   -4.2474912888692247E+00 -4.5961408427893335E+00 8.5329497930931719E+00
atom   -3.0571657864296511E+00 -3.4793023364551772E+00 6.8270243806044224E+00 O 0.0 0.0 -9.3592999999999996E-02 -6.5228999999999995E-02 8.4426000000000001E-01
atom   5.9706712392395129E+00 5.3285716419802975E+00 4.6433044654242295E+00 O 0.0 0.0 -9.7303399999999995E-01 6.5235399999999999E-01 6.4667699999999995E-01
atom   3.9964816709373863E+00 7.0090447228156982E+00 3.8688856847763242E+00 O 0.0 0.0 5.1329000000000000E-02 -1.8900000000000000E-02 -8.5566799999999998E-01
atom   4.1894257939192929E+00 -1.7988129852812773E+00 6.0525900699878896E+00 O 0.0 0.0 9.0577600000000003E-01 -7.8753700000000004E-01 -5.9831500000000004E-01
atom   -2.5829527487032808E+00 4.7561956584753569E+00 5.0786767255833327E+00 H 0.0 0.0 5.9472800000000003E-01 -5.8913400000000005E-01 1.6185900000000000E-01
atom   3.5221590328442729E+00 -1.2269009362298964E+00 5.6175965021406142E+00 H 0.0 0.0 -5.9668699999999997E-01 5.8553299999999997E-01 -2.1859300000000001E-01
atom   5.2590868560567863E+00 5.8975859988460551E+00 5.6408958922096444E+00 C 0.0 0.0 5.8608800000000005E-01 -2.7961300000000000E-01 -1.5583110000000000E+00
atom   4.9012480228231077E+00 -2.3678605262837289E+00 5.0550297031397227E+00 C 0.0 0.0 -5.3994200000000003E-01 4.2862000000000000E-01 1.5303580000000001E+00
atom   -1.5532842900664543E+00 3.4793022536799940E+00 5.9724003090353355E+00 O 0.0 0.0 9.3592999999999996E-02 6.5228999999999995E-02 -8.4426000000000001E-01
atom   -2.0861388399919769E+00 3.8637098504562770E+00 8.1561202242155293E+00 O 0.0 0.0 9.7303399999999995E-01 -6.5235399999999999E-01 -6.4667699999999995E-01
atom   4.1355420171793753E+00 6.7793776124102099E+00 3.9758921177026180E-01 O 0.0 0.0 -5.1329000000000000E-02 1.8900000000000000E-02 8.5566799999999998E-01
atom   4.2102412958460106E-01 1.7988129025061028E+00 6.7468346196518683E+00 O 0.0 0.0 -9.0577600000000003E-01 7.8753700000000004E-01 5.9831500000000004E-01
atom   -2.7534148520491826E+00 4.4360858339612168E+00 7.7207479640564252E+00 H 0.0 0.0 -5.9472800000000003E-01 5.8913400000000005E-01 -1.6185900000000000E-01
atom   1.0882908906596223E+00 1.2269008534547132E+00 7.1818281874991436E+00 H 0.0 0.0 5.9668699999999997E-01 -5.8553299999999997E-01 2.1859300000000001E-01
atom   -1.3745544568092478E+00 3.2946954935905186E+00 7.1585287974301135E+00 C 0.0 0.0 -5.8608800000000005E-01 2.7961300000000000E-01 1.5583110000000000E+00
atom   -2.9079809931921224E-01 2.3678604435085462E+00 7.7443949865000352E+00 C 0.0 0.0 5.3994200000000003E-01 -4.2862000000000000E-01 -1.5303580000000001E+00
atom   8.2736669442167476E-01 5.7129792442835203E+00 5.9724003090353355E+00 O 0.0 0.0 -9.3562000000000006E-02 -6.6861000000000004E-02 -8.4831500000000004E-01
atom   2.0861387425014422E+00 -3.8637099559491963E+00 8.1561202242155293E+00 O 0.0 0.0 -9.7361600000000004E-01 6.4885300000000001E-01 -6.4656300000000000E-01
atom   4.3594404538118621E+00 2.4129039576590472E+00 3.9758921177026180E-01 O 0.0 0.0 4.9298000000000002E-02 -1.6001999999999999E-02 8.5382300000000000E-01
atom   -4.2102421022987740E-01 -1.7988129897710357E+00 6.7468346196518683E+00 O 0.0 0.0 9.0977799999999998E-01 -7.8902700000000003E-01 5.9794199999999997E-01
atom   2.0274972355063174E+00 4.7561956413888140E+00 7.7207479640564252E+00 H 0.0 0.0 5.9436699999999998E-01 -5.8893200000000001E-01 -1.6239600000000001E-01
atom   -1.0882909765043998E+00 -1.2269009463459422E+00 7.1818281874991436E+00 H 0.0 0.0 -5.9776899999999999E-01 5.8656900000000001E-01 2.1846499999999999E-01
atom   1.3745543712429698E+00 -3.2946955861803877E+00 7.1585287974301135E+00 C 0.0 0.0 5.8424600000000004E-01 -2.8050399999999998E-01 1.5579590000000001E+00
atom   2.9079800675004358E-01 -2.3678605436761280E+00 7.7443949865000352E+00 C 0.0 0.0 -5.3891599999999995E-01 4.2598599999999998E-01 -1.5315479999999999E+00
atom   3.0571657048258620E+00 3.4793022481530533E+00 6.8270243806044224E+00 O 0.0 0.0 9.3562000000000006E-02 6.6861000000000004E-02 8.4831500000000004E-01
atom   2.5243111810024530E+00 3.8637098731740132E+00 4.6433044654242295E+00 O 0.0 0.0 9.7361600000000004E-01 -6.4885300000000001E-01 6.4656300000000000E-01
atom   4.4985007585612582E+00 2.1832368023551032E+00 3.8688856847763242E+00 O 0.0 0.0 -4.9298000000000002E-02 1.6001999999999999E-02 -8.5382300000000000E-01
atom   5.0314741337337727E+00 1.7988129069958532E+00 6.0525900699878896E+00 O 0.0 0.0 -9.0977799999999998E-01 7.8902700000000003E-01 -5.9794199999999997E-01
atom   1.8570351637412192E+00 4.4360858510477605E+00 5.0786767255833327E+00 H 0.0 0.0 -5.9436699999999998E-01 5.8893200000000001E-01 1.6239600000000001E-01
atom   5.6987409000082945E+00 1.2269008635707590E+00 5.6175965021406142E+00 H 0.0 0.0 5.9776899999999999E-01 -5.8656900000000001E-01 -2.1846499999999999E-01
atom   3.2358955522609256E+00 3.2946955034052055E+00 5.6408958922096444E+00 C 0.0 0.0 -5.8424600000000004E-01 2.8050399999999998E-01 -1.5579590000000001E+00
atom   4.3196519167538519E+00 2.3678604609009457E+00 5.0550297031397227E+00 C 0.0 0.0 5.3891599999999995E-01 -4.2598599999999998E-01 1.5315479999999999E+00
atom   7.4753188981674459E+00 7.9177270492877989E+00 1.7059254124887491E+00 O 0.0 0.0 5.7659000000000002E-02 9.8436999999999997E-02 -8.4425899999999998E-01
atom   -5.9449994659779726E-01 -1.7754927044738784E+00 3.8896453276689424E+00 O 0.0 0.0 -7.2693300000000005E-01 9.1865900000000000E-01 -6.4667699999999995E-01
atom   -2.4251759698099775E+00 6.0274035894135179E-02 4.6640641083168477E+00 O 0.0 0.0 2.2884000000000002E-02 -4.9681999999999997E-02 8.5566500000000001E-01
atom   6.3705348227700984E+00 5.6132941603404463E-01 2.4803597231052743E+00 O 0.0 0.0 8.5639799999999999E-01 -8.4096300000000002E-01 5.9831699999999999E-01
atom   -6.9728647952636813E-01 6.7966442824303899E+00 3.4542730675098392E+00 H 0.0 0.0 6.3412500000000005E-01 -5.4650100000000001E-01 -1.6185800000000000E-01
atom   5.7478670542925245E+00 1.1815013054202583E+00 2.9153532909525577E+00 H 0.0 0.0 -6.3068999999999997E-01 5.4873899999999998E-01 2.1859300000000001E-01
atom   -1.2177679315436882E+00 -1.1109126177646955E+00 2.8920539008835275E+00 C 0.0 0.0 3.2488600000000001E-01 -5.6225700000000001E-01 1.5583110000000000E+00
atom   6.9938546133212123E+00 -1.0348516577793275E-01 3.4779200899534493E+00 C 0.0 0.0 -4.6979599999999999E-01 5.0452200000000003E-01 -1.5303580000000001E+00
atom   6.5670478994931536E-01 5.8706952859381092E+00 2.5605494840578369E+00 O 0.0 0.0 -5.7659000000000002E-02 -9.8436999999999997E-02 8.4425899999999998E-01
atom   2.3154115897091662E-01 6.3716334644880295E+00 3.7682956887764341E-01 O 0.0 0.0 7.2693300000000005E-01 -9.1865900000000000E-01 6.4667699999999995E-01
atom   -2.1852741066861281E+00 -6.0274118669317443E-02 8.1353605813229102E+00 O 0.0 0.0 -2.2884000000000002E-02 4.9681999999999997E-02 -8.5566500000000001E-01
atom   2.4874063896030219E+00 4.0348113439801061E+00 1.7861151734413117E+00 O 0.0 0.0 -8.5639799999999999E-01 8.4096300000000002E-01 -5.9831699999999999E-01
atom   -3.9158983235687067E-01 6.9917780527955182E+00 8.1220182903674665E-01 H 0.0 0.0 -6.3412500000000005E-01 5.4650100000000001E-01 1.6185800000000000E-01
atom   3.1100741580805957E+00 3.4146394545938921E+00 1.3511216055940285E+00 H 0.0 0.0 6.3068999999999997E-01 -5.4873899999999998E-01 -2.1859300000000001E-01
atom   8.5480914391680751E-01 5.7070533777788466E+00 1.3744209956630582E+00 C 0.0 0.0 -3.2488600000000001E-01 5.6225700000000001E-01 -1.5583110000000000E+00
atom   1.8640865990519064E+00 4.6996259257920832E+00 7.8855480659313693E-01 C 0.0 0.0 4.6979599999999999E-01 -5.0452200000000003E-01 1.5303580000000001E+00
atom   1.0196635571851780E+00 1.2745545038591715E+00 1.7059254124887491E+00 O 0.0 0.0 -5.9286999999999999E-02 -9.8533999999999997E-02 -8.4831400000000001E-01
atom   5.9449990010465725E-01 1.7754926541644216E+00 3.8896453276689424E+00 O 0.0 0.0 7.2348699999999999E-01 -9.1951200000000000E-01 -6.4656499999999995E-01
atom   2.4251759140601687E+00 -6.0274096220090036E-02 4.6640641083168477E+00 O 0.0 0.0 -1.9834000000000001E-02 4.7884999999999997E-02 8.5382100000000005E-01
atom   2.8503651475820373E+00 -5.6132944811551422E-01 2.4803597231052743E+00 O 0.0 0.0 -8.5820300000000005E-01 8.4484000000000004E-01 5.9794400000000003E-01
atom   -2.8631086019102209E-02 2.3956372481031045E+00 3.4542730675098392E+00 H 0.0 0.0 -6.3389600000000002E-01 5.4615899999999995E-01 -1.6239600000000001E-01
atom   3.4730329108601024E+00 -1.1815013431280317E+00 2.9153532909525577E+00 H 0.0 0.0 6.3180800000000004E-01 -5.4973600000000000E-01 2.1846599999999999E-01
atom   1.2177678969748127E+00 1.1109125803582816E+00 2.8920539008835275E+00 C 0.0 0.0 -3.2562799999999997E-01 5.6035000000000001E-01 1.5579580000000000E+00
atom   2.2270453451070220E+00 1.0348512079380613E-01 3.4779200899534493E+00 C 0.0 0.0 4.6709099999999998E-01 -5.0370899999999996E-01 -1.5315460000000001E+00
atom   -1.3826223448120585E+00 3.3215862561549789E+00 2.5605494840578369E+00 O 0.0 0.0 5.9286999999999999E-02 9.8533999999999997E-02 8.4831400000000001E-01
atom   8.2634413122684602E+00 2.8206481058497292E+00 3.7682956887764341E-01 O 0.0 0.0 -7.2348699999999999E-01 9.1951200000000000E-01 6.4656499999999995E-01
atom   2.1852740094437264E+00 6.0274013444907328E-02 8.1353605813229102E+00 O 0.0 0.0 1.9834000000000001E-02 -4.7884999999999997E-02 -8.5382100000000005E-01
atom   6.0075760647910830E+00 5.1574702081296646E+00 1.7861151734413117E+00 O 0.0 0.0 8.5820300000000005E-01 -8.4484000000000004E-01 -5.9794400000000003E-01
atom   -3.3432770160777875E-01 2.2005035119110468E+00 8.1220182903674665E-01 H 0.0 0.0 6.3389600000000002E-01 -5.4615899999999995E-01 1.6239600000000001E-01
atom   5.3849083015130175E+00 5.7776421031421821E+00 1.3511216055940285E+00 H 0.0 0.0 -6.3180800000000004E-01 5.4973600000000000E-01 -2.1846599999999999E-01
atom   7.6401733153983082E+00 3.4852281796558700E+00 1.3744209956630582E+00 C 0.0 0.0 3.2562799999999997E-01 -5.6035000000000001E-01 -1.5579580000000000E+00
atom   6.6308958672660978E+00 4.4926556392203443E+00 7.8855480659313693E-01 C 0.0 0.0 -4.6709099999999998E-01 5.0370899999999996E-01 1.5315460000000001E+00
energy   -1.0268934765947391E+00
charge   0.0000000000000000E+00
end
begin
comment   oxalac_opt-QR-70-119323-3
lattice   5.1951000000000001E+00 0.0000000000000000E+00 0.0000000000000000E+00
lattice   2.5975500929900988E+00 1.0511100026553652E+01 0.0000000000000000E+00
lattice   2.5975499880281085E+00 -1.2109496724740726E-07 1.4037149921692230E+01
atom   5.9271123498691836E+00 6.6867510441441098E+00 2.1978485006940631E+00 O 0.0 0.0 -1.7938399999999999E-01 1.4932699999999999E-01 -5.2589999999999998E-02
atom   2.9030474430019764E+00 6.3731351422445037E+00 1.5490910160762248E+00 O 0.0 0.0 -6.3298600000000005E-01 7.4375199999999997E-01 1.5949000000000001E-02
atom   3.2392614550595047E+00 9.0551652956905961E+00 1.3403667382876141E+00 O 0.0 0.0 2.0125599999999999E-01 -1.4098200000000000E-01 1.4717800000000000E-01
atom   6.2633696890611068E+00 9.3688097877837357E+00 1.9889538119054040E+00 O 0.0 0.0 7.2093799999999997E-01 -8.8838600000000001E-01 3.1368000000000000E-02
atom   2.6254761508738329E+00 5.4372343628164685E+00 1.6714685735515304E+00 H 0.0 0.0 -1.2227100000000000E-01 -6.8751499999999999E-01 2.4547200000000000E-01
atom   6.5407981678919960E+00 1.0304916374549499E+01 1.8666680573905892E+00 H 0.0 0.0 3.8618000000000000E-02 7.6481900000000003E-01 -2.6160499999999998E-01
atom   7.0126246026833341E+00 7.1210995517648099E+00 1.8501595268536881E+00 C 0.0 0.0 1.0637600000000000E+00 -3.4767599999999999E-01 -4.1954000000000002E-01
atom   7.3488924254777572E+00 8.6208457987074407E+00 1.6878850203849440E+00 C 0.0 0.0 -1.0995320000000000E+00 4.6499699999999999E-01 3.0952099999999999E-01
atom   3.1643127836300193E+00 9.0798989351388872E+00 4.8207264601520512E+00 O 0.0 0.0 1.7938399999999999E-01 -1.4932699999999999E-01 5.2589999999999998E-02
atom   6.1883776904972256E+00 9.3935148370384915E+00 5.4694839447698902E+00 O 0.0 0.0 6.3298600000000005E-01 -7.4375199999999997E-01 -1.5949000000000001E-02
atom   5.8521636784396973E+00 6.7114846835924000E+00 5.6782082225585011E+00 O 0.0 0.0 -2.0125599999999999E-01 1.4098200000000000E-01 -1.4717800000000000E-01
atom   2.8280554444380956E+00 6.3978401914992578E+00 5.0296211489407110E+00 O 0.0 0.0 -7.2093799999999997E-01 8.8838600000000001E-01 -3.1368000000000000E-02
atom   6.4659489826253695E+00 1.0329415616466525E+01 5.3471063872945841E+00 H 0.0 0.0 1.2227100000000000E-01 6.8751499999999999E-01 -2.4547200000000000E-01
atom   2.5506269656072069E+00 5.4617336047334941E+00 5.1519069034555258E+00 H 0.0 0.0 -3.8618000000000000E-02 -7.6481900000000003E-01 2.6160499999999998E-01
atom   7.2739005308158688E+00 8.6455504275181845E+00 5.1684154339924264E+00 C 0.0 0.0 -1.0637600000000000E+00 3.4767599999999999E-01 4.1954000000000002E-01
atom   6.9376327080214457E+00 7.1458041805755546E+00 5.3306899404611707E+00 C 0.0 0.0 1.0995320000000000E+00 -4.6499699999999999E-01 -3.0952099999999999E-01
atom   4.6283373011371545E+00 1.4312010082403734E+00 4.8207264601520512E+00 O 0.0 0.0 -1.8326700000000001E-01 1.5015300000000001E-01 4.9682999999999998E-02
atom   1.6042723931633340E+00 1.1175850951474329E+00 5.4694839447698902E+00 O 0.0 0.0 -6.3387300000000002E-01 7.4418700000000004E-01 -1.6534000000000000E-02
atom   7.1355864048648323E+00 3.7996152449923000E+00 5.6782082225585011E+00 O 0.0 0.0 2.0615100000000000E-01 -1.3789599999999999E-01 -1.4102500000000001E-01
atom   4.9645946399727574E+00 4.1132597482758371E+00 5.0296211489407110E+00 O 0.0 0.0 7.1481499999999998E-01 -8.8299899999999998E-01 -3.6069999999999998E-02
atom   1.3267011012439354E+00 1.8168431783083816E-01 5.3471063872945841E+00 H 0.0 0.0 -1.2130000000000001E-01 -6.8674800000000003E-01 -2.4578700000000001E-01
atom   5.2420231185950579E+00 5.0493663329317435E+00 5.1519069034555258E+00 H 0.0 0.0 3.8709000000000000E-02 7.6478500000000005E-01 2.6133099999999998E-01
atom   5.7138495533582372E+00 1.8655495098622235E+00 5.1684154339924264E+00 C 0.0 0.0 1.0621270000000000E+00 -3.4553299999999998E-01 4.2173500000000003E-01
atom   6.0501173758758657E+00 3.3652957540050519E+00 5.3306899404611707E+00 C 0.0 0.0 -1.0971050000000000E+00 4.6909800000000001E-01 -3.1032100000000001E-01
atom   1.8655377393719492E+00 3.8243489444889693E+00 2.1978485006940631E+00 O 0.0 0.0 1.8326700000000001E-01 -1.5015300000000001E-01 -4.9682999999999998E-02
atom   4.8896026473457699E+00 4.1379648575819097E+00 1.5490910160762248E+00 O 0.0 0.0 6.3387300000000002E-01 -7.4418700000000004E-01 1.6534000000000000E-02
atom   4.5533886356442714E+00 1.4559347077370426E+00 1.3403667382876141E+00 O 0.0 0.0 -2.0615100000000000E-01 1.3789599999999999E-01 1.4102500000000001E-01
atom   1.5292804005363458E+00 1.1422902044535057E+00 1.9889538119054040E+00 O 0.0 0.0 -7.1481499999999998E-01 8.8299899999999998E-01 3.6069999999999998E-02
atom   5.1671739392651679E+00 5.0738656348985050E+00 1.6714685735515304E+00 H 0.0 0.0 1.2130000000000001E-01 6.8674800000000003E-01 2.4578700000000001E-01
atom   1.2518519219140454E+00 2.0618361979759886E-01 1.8666680573905892E+00 H 0.0 0.0 -3.8709000000000000E-02 -7.6478500000000005E-01 -2.6133099999999998E-01
atom   5.9751254871508666E+00 3.3900004428671191E+00 1.8501595268536881E+00 C 0.0 0.0 -1.0621270000000000E+00 3.4553299999999998E-01 -4.2173500000000003E-01
atom   5.6388576646332380E+00 1.8902541987242907E+00 1.6878850203849440E+00 C 0.0 0.0 1.0971050000000000E+00 -4.6909800000000001E-01 3.1032100000000001E-01
atom   5.9271123163230230E+00 3.8243488613145762E+00 1.1839301420998167E+01 O 0.0 0.0 -1.7455799999999999E-01 -1.4864100000000000E-01 5.2726000000000002E-02
atom   8.0981474138982321E+00 4.1379647632141809E+00 1.2488058905616004E+01 O 0.0 0.0 -6.3366699999999998E-01 -7.4485400000000002E-01 -1.6962999999999999E-02
atom   3.2392613781447022E+00 1.4559346097680899E+00 1.2696783183404616E+01 O 0.0 0.0 2.0548300000000000E-01 1.3702600000000001E-01 -1.4683499999999999E-01
atom   6.2633696077030976E+00 1.1422901176749487E+00 1.2048196109786826E+01 O 0.0 0.0 7.2055899999999995E-01 8.8543799999999995E-01 -3.3454999999999999E-02
atom   7.8205761385383710E+00 5.0738655426422170E+00 1.2365681348140699E+01 H 0.0 0.0 -1.2272900000000000E-01 6.8683099999999997E-01 -2.4574599999999999E-01
atom   6.5407980697622135E+00 2.0618353090918470E-01 1.2170481864301641E+01 H 0.0 0.0 3.8665999999999999E-02 -7.6561500000000005E-01 2.6136500000000001E-01
atom   7.0126245608588711E+00 3.3900003536938752E+00 1.2186990394838542E+01 C 0.0 0.0 1.0600660000000000E+00 3.4608600000000000E-01 4.2198300000000000E-01
atom   7.3488923568404498E+00 1.8902541067512439E+00 1.2349264901307272E+01 C 0.0 0.0 -1.0994750000000000E+00 -4.7000100000000000E-01 -3.0913499999999999E-01
atom   3.1643127122141887E+00 1.4312009703197994E+00 9.2164234615401774E+00 O 0.0 0.0 1.7455799999999999E-01 1.4864100000000000E-01 -5.2726000000000002E-02
atom   6.1883776146389806E+00 1.1175850684201944E+00 8.5676659769223402E+00 O 0.0 0.0 6.3366699999999998E-01 7.4485400000000002E-01 1.6962999999999999E-02
atom   5.8521636503925096E+00 3.7996152218662855E+00 8.3589416991337284E+00 O 0.0 0.0 -2.0548300000000000E-01 -1.3702600000000001E-01 1.4683499999999999E-01
atom   2.8280554208341151E+00 4.1132597139594269E+00 9.0075287727515185E+00 O 0.0 0.0 -7.2055899999999995E-01 -8.8543799999999995E-01 3.3454999999999999E-02
atom   6.4659488899988409E+00 1.8168428899215891E-01 8.6900435343976454E+00 H 0.0 0.0 1.2272900000000000E-01 -6.8683099999999997E-01 2.4574599999999999E-01
atom   7.7457269587749984E+00 5.0493663007251905E+00 8.8852430182367037E+00 H 0.0 0.0 -3.8665999999999999E-02 7.6561500000000005E-01 -2.6136500000000001E-01
atom   7.2739004676783408E+00 1.8655494779405002E+00 8.8687344876998022E+00 C 0.0 0.0 -1.0600660000000000E+00 -3.4608600000000000E-01 -4.2198300000000000E-01
atom   6.9376326716967629E+00 3.3652957248831314E+00 8.7064599812310721E+00 C 0.0 0.0 1.0994750000000000E+00 4.7000100000000000E-01 3.0913499999999999E-01
atom   7.0606377564722589E+00 6.6867509609697162E+00 1.1839301420998167E+01 O 0.0 0.0 1.7224900000000001E-01 1.5058400000000000E-01 5.1364000000000000E-02
atom   4.8896026577904408E+00 6.3731350478767750E+00 1.2488058905616004E+01 O 0.0 0.0 6.3763000000000003E-01 7.4301499999999998E-01 -1.2895999999999999E-02
atom   9.7484886931879373E+00 9.0551651977216423E+00 1.2696783183404616E+01 O 0.0 0.0 -2.0167099999999999E-01 -1.4052999999999999E-01 -1.4419100000000001E-01
atom   6.7243804647358649E+00 9.3688097010051798E+00 1.2048196109786826E+01 O 0.0 0.0 -7.2258699999999998E-01 -8.8565600000000000E-01 -3.3041000000000001E-02
atom   5.1671739333590416E+00 5.4372342705601806E+00 1.2365681348140699E+01 H 0.0 0.0 1.2121000000000000E-01 -6.8550999999999995E-01 -2.4550000000000000E-01
atom   6.4469520024681604E+00 1.0304916285661086E+01 1.2170481864301641E+01 H 0.0 0.0 -3.8318999999999999E-02 7.6470800000000005E-01 2.6134700000000000E-01
atom   5.9751255113433386E+00 7.1210994625915660E+00 1.2186990394838542E+01 C 0.0 0.0 -1.0601229999999999E+00 -3.4668599999999999E-01 4.1975000000000001E-01
atom   5.6388577150849652E+00 8.6208457067343947E+00 1.2349264901307272E+01 C 0.0 0.0 1.0988000000000000E+00 4.6708699999999997E-01 -3.0881300000000000E-01
atom   4.6283373650550521E+00 9.0798988972183121E+00 9.2164234615401774E+00 O 0.0 0.0 -1.7224900000000001E-01 -1.5058400000000000E-01 -5.1364000000000000E-02
atom   6.7993724637368693E+00 9.3935148103112525E+00 8.5676659769223402E+00 O 0.0 0.0 -6.3763000000000003E-01 -7.4301499999999998E-01 1.2895999999999999E-02
atom   7.1355864283393746E+00 6.7114846604663851E+00 8.3589416991337284E+00 O 0.0 0.0 2.0167099999999999E-01 1.4052999999999999E-01 1.4419100000000001E-01
atom   4.9645946567914470E+00 6.3978401571828476E+00 9.0075287727515185E+00 O 0.0 0.0 7.2258699999999998E-01 8.8565600000000000E-01 3.3041000000000001E-02
atom   6.5218011881682685E+00 1.0329415587627846E+01 8.6900435343976454E+00 H 0.0 0.0 -1.2121000000000000E-01 6.8550999999999995E-01 2.4550000000000000E-01
atom   5.2420231190591506E+00 5.4617335725269411E+00 8.8852430182367037E+00 H 0.0 0.0 3.8318999999999999E-02 -7.6470800000000005E-01 -2.6134700000000000E-01
atom   5.7138496101839724E+00 8.6455503955964623E+00 8.8687344876998022E+00 C 0.0 0.0 1.0601229999999999E+00 3.4668599999999999E-01 -4.1975000000000001E-01
atom   6.0501174064423457E+00 7.1458041514536337E+00 8.7064599812310721E+00 C 0.0 0.0 -1.0988000000000000E+00 -4.6708699999999997E-01 3.0881300000000000E-01
energy   -7.6864957092119646E-01
charge   0.0000000000000000E+00
end
begin
comment   oxalac_opt-QR-86-6152-3
lattice   1.4579499999999999E+01 0.0000000000000000E+00 0.0000000000000000E+00
lattice   8.9273690040844176E-16 1.4579499999999999E+01 0.0000000000000000E+00
lattice   2.2870891297476398E-16 2.2870891297476398E-16 3.7351000000000001E+00
atom   4.3593552068949961E+00 7.3649396889900007E+00 2.5010354725850004E+00 O 0.0 0.0 -7.2692999999999994E-02 3.3230000000000003E-02 -2.1710000000000002E-03
atom   3.7141909000299984E+00 5.6449921375250032E+00 1.1493785304129998E+00 O 0.0 0.0 -4.7181699999999999E-01 4.0509899999999999E-01 4.4943200000000000E-01
atom   1.1602297576350029E+00 6.5326585800450019E+00 1.2441836603349998E+00 O 0.0 0.0 -2.9381900000000000E-01 -8.0748699999999995E-01 -5.5693800000000004E-01
atom   1.8051647289649961E+00 8.2525944679100043E+00 2.5957852109740021E+00 O 0.0 0.0 3.7765199999999999E-01 -9.2495799999999995E-01 -6.8335100000000004E-01
atom   4.6741761821950014E+00 5.4528949782449949E+00 1.2132153112680009E+00 H 0.0 0.0 5.0792000000000004E-01 -2.0605200000000001E-01 -3.0080499999999999E-01
atom   8.4540878233499694E-01 8.4447031449949961E+00 2.5320038216519989E+00 H 0.0 0.0 -4.5612799999999998E-01 1.4641100000000001E-01 8.9902999999999997E-02
atom   3.5056210926750042E+00 6.7550146168050045E+00 1.8912121199570018E+00 C 0.0 0.0 -6.2253999999999997E-02 -1.1479100000000000E-01 -2.2517000000000001E-01
atom   2.0137346821150022E+00 7.1425719886300039E+00 1.8539516214299998E+00 C 0.0 0.0 4.3753900000000001E-01 1.4954980000000000E+00 1.0961609999999999E+00
atom   1.0220144793105003E+01 7.2145603110099987E+00 1.2340645274149999E+00 O 0.0 0.0 7.2692999999999994E-02 -3.3230000000000003E-02 2.1710000000000002E-03
atom   1.0865309099970002E+01 8.9345078624749963E+00 2.5857214695870003E+00 O 0.0 0.0 4.7181699999999999E-01 -4.0509899999999999E-01 -4.4943200000000000E-01
atom   1.3419270242364997E+01 8.0468414199549976E+00 2.4909163396650005E+00 O 0.0 0.0 2.9381900000000000E-01 8.0748699999999995E-01 5.5693800000000004E-01
atom   1.2774335271035003E+01 6.3269055320899943E+00 1.1393147890260016E+00 O 0.0 0.0 -3.7765199999999999E-01 9.2495799999999995E-01 6.8335100000000004E-01
atom   9.9053238178049980E+00 9.1266050217550045E+00 2.5218846887319990E+00 H 0.0 0.0 -5.0792000000000004E-01 2.0605200000000001E-01 3.0080499999999999E-01
atom   1.3734091217665004E+01 6.1347968550050043E+00 1.2030961783480010E+00 H 0.0 0.0 4.5612799999999998E-01 -1.4641100000000001E-01 -8.9902999999999997E-02
atom   1.1073878907324996E+01 7.8244853831949950E+00 1.8438878800429983E+00 C 0.0 0.0 6.2253999999999997E-02 1.1479100000000000E-01 2.2517000000000001E-01
atom   1.2565765317884997E+01 7.4369280113699956E+00 1.8811483785700003E+00 C 0.0 0.0 -4.3753900000000001E-01 -1.4954980000000000E+00 -1.0961609999999999E+00
atom   7.2145603110099996E+00 1.1649105206894996E+01 6.3348547258500021E-01 O 0.0 0.0 -3.3230000000000003E-02 -7.2692999999999994E-02 -2.1710000000000002E-03
atom   8.9345078624749963E+00 1.1003940900029997E+01 3.0169285304129998E+00 O 0.0 0.0 -4.0509899999999999E-01 -4.7181699999999999E-01 4.4943200000000000E-01
atom   8.0468414199549976E+00 8.4499797576350026E+00 3.1117336603349997E+00 O 0.0 0.0 8.0748699999999995E-01 -2.9381900000000000E-01 -5.5693800000000004E-01
atom   6.3269055320899952E+00 9.0949147289649961E+00 7.2823521097399846E-01 O 0.0 0.0 9.2495799999999995E-01 3.7765199999999999E-01 -6.8335100000000004E-01
atom   9.1266050217550045E+00 1.1963926182195001E+01 3.0807653112680011E+00 H 0.0 0.0 2.0605200000000001E-01 5.0792000000000004E-01 -3.0080499999999999E-01
atom   6.1347968550050052E+00 8.1351587823349956E+00 6.6445382165199895E-01 H 0.0 0.0 -1.4641100000000001E-01 -4.5612799999999998E-01 8.9902999999999997E-02
atom   7.8244853831949959E+00 1.0795371092675003E+01 2.3662119957001654E-02 C 0.0 0.0 1.1479100000000000E-01 -6.2253999999999997E-02 -2.2517000000000001E-01