begin
comment   oxalac_opt-QR-15-21295-3
lattice   3.9192000000000000E+00 0.0000000000000000E+00 0.0000000000000000E+00
lattice   1.9596000352929079E+00 8.9218498677707547E+00 0.0000000000000000E+00
lattice   1.9595998378872279E+00 4.1060228678320838E+00 9.7686252725707678E+00
atom   3.3821448618503931E+00 4.4886676085173027E+00 2.5721256306104374E+00 O 0.0 0.0 4.1374300000000003E-01 -1.2832299999999999E-01 -4.2862899999999998E-01
atom   1.8243079945349174E+00 5.6818019533451141E+00 3.7343169535586780E+00 O 0.0 0.0 8.9253199999999999E-01 -8.5877700000000001E-01 1.9674100000000000E-01
atom   2.5084619594502295E+00 4.3648205743323469E+00 5.9967252916284206E+00 O 0.0 0.0 -2.7395399999999998E-01 1.8668000000000001E-01 5.2533600000000003E-01
atom   4.0660384743120703E+00 3.1718189841634064E+00 4.8344333518398681E+00 O 0.0 0.0 -9.1576199999999996E-01 6.8342300000000000E-01 -2.3422200000000001E-01
atom   1.6935008323493166E+00 6.0661022366027302E+00 2.8414363723186775E+00 H 0.0 0.0 -3.0212800000000001E-01 3.8364700000000002E-01 -5.7102100000000000E-01
atom   4.1972265827381818E+00 2.7873315548503328E+00 5.7272454550167158E+00 H 0.0 0.0 3.5012599999999999E-01 -3.7034200000000000E-01 7.1824299999999996E-01
atom   2.8038147587274764E+00 4.7599542093996341E+00 3.6037881919215802E+00 C 0.0 0.0 -1.1162230000000000E+00 8.1506000000000001E-01 5.3246099999999996E-01
atom   3.0866880470085079E+00 4.0935669913880552E+00 4.9648857228273382E+00 C 0.0 0.0 9.7028199999999998E-01 -6.6412199999999999E-01 -7.2991399999999995E-01
atom   4.4562550113297448E+00 8.5392051270855394E+00 7.1964996419603393E+00 O 0.0 0.0 -4.1374300000000003E-01 1.2832299999999999E-01 4.2862899999999998E-01
atom   6.0140918786452184E+00 7.3460707822577245E+00 6.0343083190120899E+00 O 0.0 0.0 -8.9253199999999999E-01 8.5877700000000001E-01 -1.9674100000000000E-01
atom   5.3299379137299061E+00 8.6630521612704925E+00 3.7718999809423472E+00 O 0.0 0.0 2.7395399999999998E-01 -1.8668000000000001E-01 -5.2533600000000003E-01
atom   3.7723613988680662E+00 9.8560537514394326E+00 4.9341919207308997E+00 O 0.0 0.0 9.1576199999999996E-01 -6.8342300000000000E-01 2.3422200000000001E-01
atom   6.1448990408308193E+00 6.9617704990001084E+00 6.9271889002520899E+00 H 0.0 0.0 3.0212800000000001E-01 -3.8364700000000002E-01 5.7102100000000000E-01
atom   3.6411732904419543E+00 1.0240541180752505E+01 4.0413798175540521E+00 H 0.0 0.0 -3.5012599999999999E-01 3.7034200000000000E-01 -7.1824299999999996E-01
atom   5.0345851144526597E+00 8.2679185262032053E+00 6.1648370806491872E+00 C 0.0 0.0 1.1162230000000000E+00 -8.1506000000000001E-01 -5.3246099999999996E-01
atom   4.7517118261716282E+00 8.9343057442147842E+00 4.8037395497434296E+00 C 0.0 0.0 -9.7028199999999998E-01 6.6412199999999999E-01 7.2991399999999995E-01
atom   1.4225448568516730E+00 2.0252687592841161E+00 2.3121870056749465E+00 O 0.0 0.0 4.1169600000000001E-01 1.3184999999999999E-01 4.2893700000000001E-01
atom   3.7839080225351518E+00 8.3213441445631309E-01 1.1499956827267057E+00 O 0.0 0.0 8.9102899999999996E-01 8.5918099999999997E-01 -1.9325400000000001E-01
atom   2.5084619183710677E+00 6.2551386613011566E+00 8.6562126172277303E+00 O 0.0 0.0 -2.7280300000000002E-01 -1.8395600000000001E-01 -5.2810199999999996E-01
atom   2.1064385623419990E+00 3.3421173836380129E+00 4.9879284445516141E-02 O 0.0 0.0 -9.1413699999999998E-01 -6.8469400000000002E-01 2.3494200000000001E-01
atom   5.6127008599976573E+00 9.3696839989694425E+00 2.0428762639667064E+00 H 0.0 0.0 -3.0248000000000003E-01 -3.8403900000000002E-01 5.7303300000000001E-01
atom   4.1972265442991148E+00 7.8326276807831698E+00 8.9256924538394351E+00 H 0.0 0.0 3.4989599999999998E-01 3.7021700000000002E-01 -7.1789099999999995E-01
atom   8.4421478925459104E-01 1.7539821584017850E+00 1.2805244443638035E+00 C 0.0 0.0 -1.1175200000000001E+00 -8.1537700000000002E-01 -5.3232199999999996E-01
atom   3.0866879703967860E+00 6.5263922442454483E+00 9.6880521860288127E+00 C 0.0 0.0 9.6914400000000001E-01 6.6249300000000000E-01 7.3518600000000001E-01
atom   6.4158550163284618E+00 1.1002603976318719E+01 7.4564382668958125E+00 O 0.0 0.0 -4.1169600000000001E-01 -1.3184999999999999E-01 -4.2893700000000001E-01
atom   4.0544918506449861E+00 1.2195738321146534E+01 8.6186295898440619E+00 O 0.0 0.0 -8.9102899999999996E-01 -8.5918099999999997E-01 1.9325400000000001E-01
atom   5.3299379548090675E+00 6.7727340743016820E+00 1.1124126553430367E+00 O 0.0 0.0 2.7280300000000002E-01 1.8395600000000001E-01 5.2810199999999996E-01
atom   5.7319613108381366E+00 9.6857553519648256E+00 9.7187459881252511E+00 O 0.0 0.0 9.1413699999999998E-01 6.8469400000000002E-01 -2.3494200000000001E-01
atom   2.2256990131824779E+00 3.6581887366333952E+00 7.7257490086040619E+00 H 0.0 0.0 3.0248000000000003E-01 3.8403900000000002E-01 -5.7303300000000001E-01
atom   3.6411733288810209E+00 5.1952450548196687E+00 8.4293281873133219E-01 H 0.0 0.0 -3.4989599999999998E-01 -3.7021700000000002E-01 7.1789099999999995E-01
atom   6.9941850839255446E+00 1.1273890577201053E+01 8.4881008282069637E+00 C 0.0 0.0 1.1175200000000001E+00 8.1537700000000002E-01 5.3232199999999996E-01
atom   4.7517119027833497E+00 6.5014804913573903E+00 8.0573086541954678E-02 C 0.0 0.0 -9.6914400000000001E-01 -6.6249300000000000E-01 -7.3518600000000001E-01
energy   -1.5642015242426366E-01
charge   0.0000000000000000E+00
end
begin
comment   oxalac_opt-QR-145-5236-3
lattice   1.1299099999999999E+01 0.0000000000000000E+00 0.0000000000000000E+00
lattice   -5.6495499999999961E+00 9.7853076399007506E+00 0.0000000000000000E+00
lattice   2.3290332826184364E-16 4.0340039780140549E-16 3.8036000000000003E+00
atom   -5.3051760301999684E-01 1.5268606543118597E+00 1.1781224996799997E+00 O 0.0 0.0 -2.8766900000000001E-01 -2.2107299999999999E-01 1.4346200000000001E-01
atom   1.1405997960325056E+00 2.2876069694352403E+00 3.6289510877360001E+00 O 0.0 0.0 -6.1282000000000003E-01 2.0458499999999999E-01 6.9064099999999995E-01
atom   6.0524058515799917E-01 4.8251050584875310E+00 5.9653962190800158E-01 O 0.0 0.0 4.0131400000000000E-01 2.9550999999999999E-01 -1.3493800000000000E-01
atom   -1.0658489616129916E+00 4.0642226297348722E+00 1.9491852487999988E+00 O 0.0 0.0 6.0775900000000005E-01 -3.2838499999999998E-01 -5.1605199999999996E-01
atom   1.2109329083340048E+00 1.3253304821127294E+00 3.4519935043800012E+00 H 0.0 0.0 2.7193899999999999E-01 -4.8453000000000002E-01 -3.4920299999999999E-01
atom   -1.1362158017280015E+00 5.0266536270650253E+00 2.1262360583919988E+00 H 0.0 0.0 -2.6048700000000002E-01 5.4954199999999997E-01 4.6658999999999999E-02
atom   1.3290854502049973E-01 2.4308646561080018E+00 7.1413989724800064E-01 C 0.0 0.0 6.5929000000000004E-01 3.6230800000000002E-01 -6.1429900000000004E-01
atom   -5.8157541114502193E-02 3.9209648452090433E+00 1.0603964012520017E+00 C 0.0 0.0 -7.6031300000000002E-01 -2.9510999999999998E-01 7.3370800000000003E-01
atom   -4.0619910838169968E+00 9.4813190341149660E+00 2.4459891663453983E+00 O 0.0 0.0 -4.7618000000000001E-02 3.5970000000000002E-01 1.4349100000000001E-01
atom   -4.2387241486109994E+00 7.6537157562676326E+00 1.0932177544013988E+00 O 0.0 0.0 4.8354799999999998E-01 4.2837300000000000E-01 6.9056899999999999E-01
atom   -1.7735067359999945E+00 6.8486013885088006E+00 1.8644062885734003E+00 O 0.0 0.0 5.5266999999999997E-02 -4.9534899999999998E-01 -1.3494200000000001E-01
atom   -1.5969054752074938E+00 8.6762486023874317E+00 3.2170519154654009E+00 O 0.0 0.0 -5.8824600000000005E-01 -3.6216300000000001E-01 -5.1603600000000005E-01
atom   6.1918534117525015E+00 8.0739437379485661E+00 9.1626017104539959E-01 H 0.0 0.0 -5.5555600000000005E-01 6.7549999999999997E-03 -3.4918900000000003E-01
atom   -7.2823236207249309E-01 8.2559725748459911E+00 3.3941027250573979E+00 H 0.0 0.0 6.0613499999999998E-01 -4.9173000000000001E-02 4.6642000000000003E-02
atom   -3.6108137271589933E+00 8.4547731354789697E+00 1.9820065639133995E+00 C 0.0 0.0 -1.5844000000000000E-02 -7.5208299999999995E-01 -6.1425399999999997E-01
atom   -2.2248160661459946E+00 7.8751911253230267E+00 2.3282630679174003E+00 C 0.0 0.0 1.2459000000000001E-01 8.0603300000000000E-01 7.3372000000000004E-01
atom   4.5925086868370011E+00 8.5624355913746744E+00 3.7138558330146010E+00 O 0.0 0.0 3.3531699999999998E-01 -1.3856499999999999E-01 1.4350700000000000E-01
atom   3.0981243525785018E+00 9.6292925540986296E+00 2.3610844210706015E+00 O 0.0 0.0 1.2919500000000000E-01 -6.3292899999999996E-01 6.9056700000000004E-01
atom   1.1682661508420029E+00 7.8969088328051695E+00 3.1322729552426032E+00 O 0.0 0.0 -4.5660800000000001E-01 1.9980899999999999E-01 -1.3492999999999999E-01
atom   2.6627544368205083E+00 6.8301440476791884E+00 6.8131858213460339E-01 O 0.0 0.0 -1.9529999999999999E-02 6.9054000000000004E-01 -5.1610800000000001E-01
atom   9.5458636799135004E+00 3.8603341983944767E-01 2.1841268377146021E+00 H 0.0 0.0 2.8363200000000000E-01 4.7774200000000000E-01 -3.4918900000000003E-01
atom   1.8644481638005019E+00 6.2879890778904839E+00 8.5836939172660354E-01 H 0.0 0.0 -3.4566599999999997E-01 -5.0034699999999999E-01 4.6656999999999997E-02
atom   3.4779051821385014E+00 8.6849774882145301E+00 3.2498732305826019E+00 C 0.0 0.0 -6.4339400000000002E-01 3.8976200000000000E-01 -6.1425600000000002E-01
atom   2.2829736072605034E+00 7.7744593092694307E+00 3.5961297345866035E+00 C 0.0 0.0 6.3576400000000000E-01 -5.1095500000000005E-01 7.3377599999999998E-01
energy   -2.8860862467567561E-01
charge   0.0000000000000000E+00
end
begin
comment   oxalac_opt-QR-34-9319-3
lattice   1.0617200000000000E+01 0.0000000000000000E+00 0.0000000000000000E+00
lattice   3.6178515740411109E-16 5.9084000000000003E+00 0.0000000000000000E+00
lattice   3.3685134857347097E-16 3.3685134857347097E-16 5.5011999999999999E+00
atom   5.5881320835559984E+00 1.4772457602280014E+00 2.9765879206999983E+00 O 0.0 0.0 -6.7537700000000001E-01 -2.7799999999999998E-04 -2.3985699999999999E-01
atom   7.8576011585279959E+00 1.4770781980040015E+00 3.2019361618640003E+00 O 0.0 0.0 -9.8899400000000004E-01 -9.8999999999999999E-04 9.4287500000000002E-01
atom   7.5870459175720022E+00 1.4767784648720022E+00 3.9284201228800281E-01 O 0.0 0.0 6.0436400000000001E-01 5.4299999999999997E-04 2.1168000000000001E-01
atom   5.3175769487719950E+00 1.4770057610200009E+00 1.6749382613600064E-01 O 0.0 0.0 9.1092499999999998E-01 1.1360000000000001E-03 -8.8777300000000003E-01
atom   7.7894690997199962E+00 1.4766113753199996E+00 2.2234194538800018E+00 H 0.0 0.0 9.6539000000000000E-02 7.6400000000000003E-04 -8.7932100000000002E-01
atom   5.3857141038360012E+00 1.4774128497799983E+00 1.1460653810840031E+00 H 0.0 0.0 -1.5030900000000000E-01 -9.4100000000000000E-04 9.2510499999999996E-01
atom   6.5879748296120040E+00 1.4771181978719998E+00 3.6644528525840019E+00 C 0.0 0.0 1.6329970000000000E+00 -1.6100000000000001E-04 -3.2693000000000000E-02
atom   6.5872032776879967E+00 1.4769657020679978E+00 5.2061771354159996E+00 C 0.0 0.0 -1.5130220000000001E+00 -1.2100000000000000E-04 -4.0015000000000002E-02
atom   5.0290679164440020E+00 4.4311542397719990E+00 2.9765879206999983E+00 O 0.0 0.0 6.7537700000000001E-01 2.7799999999999998E-04 -2.3985699999999999E-01
atom   2.7595988414720054E+00 4.4313218019959990E+00 3.2019361618640003E+00 O 0.0 0.0 9.8899400000000004E-01 9.8999999999999999E-04 9.4287500000000002E-01
atom   3.0301540824279982E+00 4.4316215351279986E+00 3.9284201228800281E-01 O 0.0 0.0 -6.0436400000000001E-01 -5.4299999999999997E-04 2.1168000000000001E-01
atom   5.2996230512280054E+00 4.4313942389799994E+00 1.6749382613600064E-01 O 0.0 0.0 -9.1092499999999998E-01 -1.1360000000000001E-03 -8.8777300000000003E-01
atom   2.8277309002800046E+00 4.4317886246800011E+00 2.2234194538800018E+00 H 0.0 0.0 -9.6539000000000000E-02 -7.6400000000000003E-04 -8.7932100000000002E-01
atom   5.2314858961639992E+00 4.4309871502200018E+00 1.1460653810840031E+00 H 0.0 0.0 1.5030900000000000E-01 9.4100000000000000E-04 9.2510499999999996E-01
atom   4.0292251703879964E+00 4.4312818021280007E+00 3.6644528525840019E+00 C 0.0 0.0 -1.6329970000000000E+00 1.6100000000000001E-04 -3.2693000000000000E-02
atom   4.0299967223120037E+00 4.4314342979319976E+00 5.2061771354159996E+00 C 0.0 0.0 1.5130220000000001E+00 1.2100000000000000E-04 -4.0015000000000002E-02
atom   1.0337667916444001E+01 4.4314457602280015E+00 2.2598792069999862E-01 O 0.0 0.0 6.7537700000000001E-01 -2.7799999999999998E-04 -2.3985699999999999E-01
atom   8.0681988414720056E+00 4.4312781980040015E+00 4.5133616186400044E-01 O 0.0 0.0 9.8899400000000004E-01 -9.8999999999999999E-04 9.4287500000000002E-01
atom   8.3387540824279984E+00 4.4309784648720019E+00 3.1434420122879980E+00 O 0.0 0.0 -6.0436400000000001E-01 5.4299999999999997E-04 2.1168000000000001E-01
atom   1.0608223051228006E+01 4.4312057610200011E+00 2.9180938261360008E+00 O 0.0 0.0 -9.1092499999999998E-01 1.1360000000000001E-03 -8.8777300000000003E-01
atom   8.1363309002800044E+00 4.4308113753199994E+00 4.9740194538800013E+00 H 0.0 0.0 -9.6539000000000000E-02 7.6400000000000003E-04 -8.7932100000000002E-01
atom   1.0540085896163999E+01 4.4316128497799987E+00 3.8966653810839982E+00 H 0.0 0.0 1.5030900000000000E-01 -9.4100000000000000E-04 9.2510499999999996E-01
atom   9.3378251703879975E+00 4.4313181978719998E+00 9.1385285258400184E-01 C 0.0 0.0 -1.6329970000000000E+00 -1.6100000000000001E-04 -3.2693000000000000E-02
atom   9.3385967223120048E+00 4.4311657020680029E+00 2.4555771354159992E+00 C 0.0 0.0 1.5130220000000001E+00 -1.2100000000000000E-04 -4.0015000000000002E-02
atom   2.7953208355599846E-01 1.4769542397719990E+00 2.2598792069999862E-01 O 0.0 0.0 -6.7537700000000001E-01 2.7799999999999998E-04 -2.3985699999999999E-01
atom   2.5490011585279952E+00 1.4771218019959989E+00 4.5133616186400044E-01 O 0.0 0.0 -9.8899400000000004E-01 9.8999999999999999E-04 9.4287500000000002E-01
atom   2.2784459175720024E+00 1.4774215351279982E+00 3.1434420122879980E+00 O 0.0 0.0 6.0436400000000001E-01 -5.4299999999999997E-04 2.1168000000000001E-01
atom   8.9769487720049185E-03 1.4771942389799995E+00 2.9180938261360008E+00 O 0.0 0.0 9.1092499999999998E-01 -1.1360000000000001E-03 -8.8777300000000003E-01
atom   2.4808690997199965E+00 1.4775886246800010E+00 4.9740194538800013E+00 H 0.0 0.0 9.6539000000000000E-02 -7.6400000000000003E-04 -8.7932100000000002E-01
atom   7.7114103836001591E-02 1.4767871502200021E+00 3.8966653810839982E+00 H 0.0 0.0 -1.5030900000000000E-01 9.4100000000000000E-04 9.2510499999999996E-01
atom   1.2793748296120036E+00 1.4770818021280006E+00 9.1385285258400184E-01 C 0.0 0.0 1.6329970000000000E+00 1.6100000000000001E-04 -3.2693000000000000E-02
atom   1.2786032776879968E+00 1.4772342979320028E+00 2.4555771354159992E+00 C 0.0 0.0 -1.5130220000000001E+00 1.2100000000000000E-04 -4.0015000000000002E-02
energy   -2.4944689669123710E-01
charge   0.0000000000000000E+00
end
begin
comment   oxalac_opt-QR-146-6085-3
lattice   6.6874419999999999E+00 0.0000000000000000E+00 0.0000000000000000E+00
lattice   -1.3636292218255091E+00 6.5469378986475473E+00 0.0000000000000000E+00
lattice   -1.3636292218255091E+00 -1.6769176911465162E+00 6.3285340250224920E+00
atom   2.0602873911019328E+00 5.5913078800440674E+00 1.2521907650312383E+00 O 0.0 0.0 9.1898999999999995E-02 2.1842700000000001E-01 -3.0975500000000000E-01
atom   2.0798881902699420E+00 4.3221661856853473E+00 3.1469310061151425E+00 O 0.0 0.0 -3.6429099999999998E-01 6.5593000000000001E-01 -7.3353699999999999E-01
atom   -6.2362301015575539E-01 4.3991648853658516E+00 3.2227188083291791E+00 O 0.0 0.0 -9.3528000000000000E-02 -2.1933400000000000E-01 3.1654300000000002E-01
atom   -6.4325365177092730E-01 5.6684165946758549E+00 1.3280543197975549E+00 O 0.0 0.0 3.5838199999999998E-01 -6.5660099999999999E-01 7.3165800000000003E-01
atom   3.0447112273401697E+00 4.3862655884641821E+00 2.9819277080487940E+00 H 0.0 0.0 2.2698299999999999E-01 -2.3667600000000000E-01 1.3355100000000000E-01
atom   5.0793204073796412E+00 5.6042760344435942E+00 1.4929895861231377E+00 H 0.0 0.0 -2.2435300000000000E-01 2.3819100000000001E-01 -1.3249400000000000E-01
atom   1.4841734478360888E+00 5.0161631927540515E+00 2.1522510118316984E+00 C 0.0 0.0 -7.3174000000000003E-02 -4.2263600000000001E-01 7.5928600000000002E-01
atom   -4.7538948938908081E-02 4.9744195389069503E+00 2.3227342507956537E+00 C 0.0 0.0 7.2404999999999997E-02 4.2462600000000000E-01 -7.6317800000000002E-01
atom   5.0537226896325880E+00 4.0176104448616351E-01 3.3725309034658442E+00 O 0.0 0.0 1.9509899999999999E-01 -3.3388000000000001E-01 5.0680999999999997E-02
atom   3.8072490633839426E+00 2.2946640095771542E+00 3.6262379721232372E+00 O 0.0 0.0 7.1642899999999998E-01 -6.5199099999999999E-01 -4.0333400000000003E-01
atom   4.4339001176312793E+00 3.0418242611211106E+00 1.1024104391353768E+00 O 0.0 0.0 -1.9564999999999999E-01 3.4088600000000002E-01 -5.0659999999999997E-02
atom   5.6804875325433590E+00 1.1489962587338542E+00 8.4871621740205516E-01 O 0.0 0.0 -7.1587500000000004E-01 6.5168300000000001E-01 3.9713599999999999E-01
atom   3.6732656841029003E+00 1.8898819590892493E+00 4.5096508203148593E+00 H 0.0 0.0 -2.7798800000000001E-01 8.4541000000000005E-02 2.0235700000000001E-01
atom   4.4508105535514799E+00 -1.2319173464198398E-01 6.2937693624921538E+00 H 0.0 0.0 2.7893299999999999E-01 -8.4253999999999996E-02 -1.9930200000000001E-01
atom   4.6081366580398857E+00 1.4462988082499615E+00 2.9445109467645869E+00 C 0.0 0.0 -3.9883600000000002E-01 7.7437900000000004E-01 4.1925999999999998E-02
atom   4.8795998982855817E+00 1.9973614113608396E+00 1.5304431794753657E+00 C 0.0 0.0 4.0094000000000002E-01 -7.7804899999999999E-01 -4.3263999999999997E-02
atom   -6.3717925781470974E-01 1.9717883956857170E+00 5.7255168126079097E+00 O 0.0 0.0 -3.6664600000000003E-01 1.7507999999999999E-02 1.3180000000000000E-01
atom   1.4701206666712119E+00 2.4307288973804249E+00 4.9840277317467843E+00 O 0.0 0.0 -7.8438500000000000E-01 -5.3547699999999998E-01 4.4616600000000001E-01
atom   2.0738032223833565E+00 -2.0506442197985644E-01 5.0778698922541121E+00 O 0.0 0.0 3.7362699999999999E-01 -1.7715000000000002E-02 -1.3094300000000000E-01
atom   -3.3446516901783331E-02 -6.6402495374515269E-01 5.8194847210863152E+00 O 0.0 0.0 7.8396800000000000E-01 5.2936200000000000E-01 -4.4729500000000000E-01
atom   1.1011635533527009E+00 3.3394097939226759E+00 5.0037252306143287E+00 H 0.0 0.0 1.3944799999999999E-01 2.6089800000000002E-01 -1.9457400000000000E-01
atom   -1.0281635291879776E+00 4.9741768281136594E+00 5.7997300122711835E+00 H 0.0 0.0 -1.3936200000000001E-01 -2.5819300000000001E-01 1.9630700000000001E-01
atom   4.7627159613973802E-01 1.6152256031861876E+00 5.4000981505019956E+00 C 0.0 0.0 8.3943699999999999E-01 1.0009800000000001E-01 -2.1405800000000000E-01
atom   9.6040251402784937E-01 1.5147829174888275E-01 5.4034142390457642E+00 C 0.0 0.0 -8.4345999999999999E-01 -1.0172299999999999E-01 2.1498200000000001E-01
energy   1.7271925339380134E-01
charge   0.0000000000000000E+00
end
begin
comment   oxalac_opt-QR-82-4756-3
lattice   5.3475000000000001E+00 0.0000000000000000E+00 0.0000000000000000E+00
lattice   2.6737498851642862E+00 1.0192519800851260E+01 0.0000000000000000E+00
lattice   2.6737498851642862E+00 2.8812395010435172E-08 1.0192519800851255E+01
atom   6.9448927833494727E+00 3.7194642314125104E+00 6.7007016449748926E+00 O 0.0 0.0 4.8428800000000000E-01 -5.8790000000000002E-02 1.0084400000000000E-01
atom   4.7170298525053553E+00 3.6711566805208498E+00 6.2159426512660607E+00 O 0.0 0.0 7.4810299999999996E-01 1.3355800000000001E-01 8.2780100000000001E-01
atom   4.1604265067486246E+00 4.5936993896962344E+00 8.6978438501673079E+00 O 0.0 0.0 -5.3482600000000002E-01 -2.8757999999999999E-02 -6.2639999999999996E-03
atom   6.3883603454430791E+00 4.6420883788207838E+00 9.1824914396347133E+00 O 0.0 0.0 -7.7532999999999996E-01 -2.5794400000000001E-01 -6.6681000000000001E-01
atom   5.0776862814497070E+00 3.3452983546227517E+00 5.3640479731533901E+00 H 0.0 0.0 -6.5920999999999993E-02 -1.5013000000000001E-01 -5.9965800000000002E-01
atom   6.0276330086483947E+00 4.9678652664859930E+00 1.0034497521988810E+01 H 0.0 0.0 3.4029599999999999E-01 2.5316899999999998E-01 6.3038799999999995E-01
atom   5.7854286837974511E+00 3.8966346884784602E+00 7.0118766244397372E+00 C 0.0 0.0 -1.0761909999999999E+00 1.4022000000000000E-02 -3.4772700000000001E-01
atom   5.3198906063006506E+00 4.4165289326302846E+00 8.3866688707024633E+00 C 0.0 0.0 1.1986340000000000E+00 2.5713000000000000E-02 1.2193000000000001E-02
atom   6.9448927884791019E+00 6.4730555982511451E+00 3.4918181558763619E+00 O 0.0 0.0 4.8632799999999998E-01 5.5530999999999997E-02 -1.0205699999999999E-01
atom   4.7170298456232187E+00 6.5213631491428057E+00 3.9765771495851934E+00 O 0.0 0.0 7.4756100000000003E-01 -1.2918700000000000E-01 -8.2397900000000002E-01
atom   4.1604265765799466E+00 5.5988204399674206E+00 1.4946759506839473E+00 O 0.0 0.0 -5.3974200000000006E-01 3.1074000000000001E-02 4.8900000000000002E-03
atom   6.3883604272854928E+00 5.5504314508428623E+00 1.0100283612165410E+00 O 0.0 0.0 -7.7402800000000005E-01 2.6169799999999999E-01 6.6180899999999998E-01
atom   5.0776862480288676E+00 6.8472214750409028E+00 4.8284718276978644E+00 H 0.0 0.0 -6.5465999999999996E-02 1.4924299999999999E-01 5.9997900000000004E-01
atom   6.0276331170301765E+00 5.2246545631776620E+00 1.5802227886244463E-01 H 0.0 0.0 3.4071099999999999E-01 -2.5528099999999998E-01 -6.3116000000000005E-01
atom   5.7854286999311251E+00 6.2958851411851953E+00 3.1806431764115173E+00 C 0.0 0.0 -1.0767960000000001E+00 -1.5927000000000000E-02 3.4805199999999997E-01
atom   5.3198906651279234E+00 5.7759908970333704E+00 1.8058509301487922E+00 C 0.0 0.0 1.2005070000000000E+00 -2.5817000000000000E-02 -1.0919000000000000E-02
atom   6.4238570180028951E+00 3.4918181663906109E+00 3.7194642124708466E+00 O 0.0 0.0 -4.8524699999999998E-01 -1.0458099999999999E-01 -5.7449000000000000E-02
atom   3.3042199499355416E+00 3.9765771599628863E+00 3.6711566629495112E+00 O 0.0 0.0 -7.4854399999999999E-01 -8.2361700000000004E-01 1.3329299999999999E-01
atom   3.8608232749043117E+00 1.4946759636694984E+00 4.5936993651090132E+00 O 0.0 0.0 5.3698299999999999E-01 6.2179999999999996E-03 -2.8281000000000001E-02
atom   1.6328894351194874E+00 1.0100283743388789E+00 4.6420883528635519E+00 O 0.0 0.0 7.7292400000000006E-01 6.6197899999999998E-01 -2.6019399999999998E-01
atom   2.9435635283338630E+00 4.8284718371544155E+00 3.3452983394595646E+00 H 0.0 0.0 6.6684999999999994E-02 5.9905299999999995E-01 -1.4981000000000000E-01
atom   1.9936167645733374E+00 1.5802229290569392E-01 4.9678652381202957E+00 H 0.0 0.0 -3.3969899999999997E-01 -6.3143000000000005E-01 2.5447100000000000E-01
atom   2.2358211135626744E+00 3.1806431874265941E+00 3.8966346686571613E+00 C 0.0 0.0 1.0767860000000000E+00 3.4938200000000003E-01 1.3967000000000000E-02
atom   2.7013591793445255E+00 1.8058509426335150E+00 4.4165289089226984E+00 C 0.0 0.0 -1.1991909999999999E+00 -1.2370000000000001E-02 2.5085000000000000E-02
atom   6.4238569508256775E+00 6.7007016632730441E+00 6.4730555883804080E+00 O 0.0 0.0 -4.8323800000000000E-01 1.0390600000000000E-01 5.7013000000000001E-02
atom   8.6517198925930359E+00 6.2159426697007687E+00 6.5213631379017434E+00 O 0.0 0.0 -7.4889899999999998E-01 8.2907500000000001E-01 -1.2955100000000000E-01
atom   3.8608231824242627E+00 8.6978438659941553E+00 5.5988204357422413E+00 O 0.0 0.0 5.3522300000000000E-01 -8.3669999999999994E-03 3.1654000000000002E-02
atom   6.9803893328090822E+00 9.1824914553247758E+00 5.5504314479876937E+00 O 0.0 0.0 7.7124400000000004E-01 -6.6474299999999997E-01 2.6091900000000001E-01
atom   8.2910634828447076E+00 5.3640479925092395E+00 6.8472214613916895E+00 H 0.0 0.0 6.6649000000000000E-02 -6.0025600000000001E-01 1.4935399999999999E-01
atom   7.3411166504052323E+00 1.0034497536757961E+01 5.2246545627309589E+00 H 0.0 0.0 -3.3944999999999997E-01 6.3018600000000002E-01 -2.5543700000000003E-01
atom   7.5833210433658946E+00 7.0118766422370600E+00 6.2958851321940932E+00 C 0.0 0.0 1.0785860000000000E+00 -3.4843299999999999E-01 -1.5594000000000000E-02
atom   8.0488590898840453E+00 8.3866688870301402E+00 5.7759908919285561E+00 C 0.0 0.0 -1.1989390000000000E+00 1.1823999999999999E-02 -2.6821000000000001E-02
energy   -3.5650385772783899E-02
charge   0.0000000000000000E+00
end
begin
comment   oxalac_opt-QR-61-9664-3
lattice   1.0916100000000000E+01 0.0000000000000000E+00 0.0000000000000000E+00
lattice   6.0485305409887778E-16 9.8780000000000001E+00 0.0000000000000000E+00
lattice   3.5950731435769702E-16 3.5950731435769702E-16 5.8712000000000000E+00
atom   8.8329108831209968E+00 4.6933254473600003E+00 4.6081001512560000E+00 O 0.0 0.0 2.6249400000000001E-01 5.8954300000000004E-01 1.1344500000000000E-01
atom   8.5743122947560000E+00 2.4969514559000006E+00 4.0498821900720019E+00 O 0.0 0.0 -7.2966699999999995E-01 1.0532880000000000E+00 4.0029999999999996E-03
atom   5.8877120624399959E+00 2.8184325463799977E+00 4.0441308212640017E+00 O 0.0 0.0 -2.2142000000000001E-01 -5.3446300000000002E-01 -5.2038000000000001E-02
atom   6.1463107599660018E+00 5.0148066366199977E+00 4.6023487237360001E+00 O 0.0 0.0 7.7027599999999996E-01 -7.9220900000000005E-01 -1.5837000000000001E-01
atom   9.5531362762680025E+00 2.5422044507199972E+00 4.0921426179759983E+00 H 0.0 0.0 6.2400400000000000E-01 -1.8017200000000000E-01 2.0423500000000000E-01
atom   5.1673866778169977E+00 4.9699395752599980E+00 4.5603974145120025E+00 H 0.0 0.0 -8.9093000000000000E-01 8.4921999999999997E-02 -1.0990500000000000E-01
atom   8.1307377720270022E+00 3.7387326163000041E+00 4.3467864843040029E+00 C 0.0 0.0 1.1237000000000000E-02 -1.4794959999999999E+00 -4.3692100000000000E-01
atom   6.5897851820579962E+00 3.7734113109000007E+00 4.3057536068960029E+00 C 0.0 0.0 2.6851000000000003E-01 1.2915810000000001E+00 3.6675700000000000E-01
atom   2.0831891168790038E+00 5.1846745526399998E+00 1.2630998487439999E+00 O 0.0 0.0 -2.6249400000000001E-01 -5.8954300000000004E-01 -1.1344500000000000E-01
atom   2.3417877052440002E+00 7.3810485441000004E+00 1.8213178099279981E+00 O 0.0 0.0 7.2966699999999995E-01 -1.0532880000000000E+00 -4.0029999999999996E-03
atom   5.0283879375600042E+00 7.0595674536200024E+00 1.8270691787359983E+00 O 0.0 0.0 2.2142000000000001E-01 5.3446300000000002E-01 5.2038000000000001E-02
atom   4.7697892400339983E+00 4.8631933633800024E+00 1.2688512762639996E+00 O 0.0 0.0 -7.7027599999999996E-01 7.9220900000000005E-01 1.5837000000000001E-01
atom   1.3629637237319989E+00 7.3357955492800029E+00 1.7790573820240014E+00 H 0.0 0.0 -6.2400400000000000E-01 1.8017200000000000E-01 -2.0423500000000000E-01
atom   5.7487133221830025E+00 4.9080604247400021E+00 1.3108025854879977E+00 H 0.0 0.0 8.9093000000000000E-01 -8.4921999999999997E-02 1.0990500000000000E-01
atom   2.7853622279729975E+00 6.1392673836999965E+00 1.5244135156960024E+00 C 0.0 0.0 -1.1237000000000000E-02 1.4794959999999999E+00 4.3692100000000000E-01
atom   4.3263148179420039E+00 6.1045886890999999E+00 1.5654463931040024E+00 C 0.0 0.0 -2.6851000000000003E-01 -1.2915810000000001E+00 -3.6675700000000000E-01
atom   2.0831891168790042E+00 9.6323254473600013E+00 4.1986998487439999E+00 O 0.0 0.0 -2.6249400000000001E-01 5.8954300000000004E-01 -1.1344500000000000E-01
atom   2.3417877052440006E+00 7.4359514558999997E+00 4.7569178099279981E+00 O 0.0 0.0 7.2966699999999995E-01 1.0532880000000000E+00 -4.0029999999999996E-03
atom   5.0283879375600051E+00 7.7574325463799978E+00 4.7626691787359983E+00 O 0.0 0.0 2.2142000000000001E-01 -5.3446300000000002E-01 5.2038000000000001E-02
atom   4.7697892400339983E+00 7.5806636620006571E-02 4.2044512762639998E+00 O 0.0 0.0 -7.7027599999999996E-01 -7.9220900000000005E-01 1.5837000000000001E-01
atom   1.3629637237319991E+00 7.4812044507199973E+00 4.7146573820240016E+00 H 0.0 0.0 -6.2400400000000000E-01 -1.8017200000000000E-01 -2.0423500000000000E-01
atom   5.7487133221830025E+00 3.0939575260006739E-02 4.2464025854879974E+00 H 0.0 0.0 8.9093000000000000E-01 8.4921999999999997E-02 1.0990500000000000E-01
atom   2.7853622279729979E+00 8.6777326163000037E+00 4.4600135156959970E+00 C 0.0 0.0 -1.1237000000000000E-02 -1.4794959999999999E+00 4.3692100000000000E-01
atom   4.3263148179420048E+00 8.7124113109000003E+00 4.5010463931039970E+00 C 0.0 0.0 -2.6851000000000003E-01 1.2915810000000001E+00 -3.6675700000000000E-01
atom   8.8329108831209968E+00 2.4567455263999941E-01 1.6725001512560000E+00 O 0.0 0.0 2.6249400000000001E-01 -5.8954300000000004E-01 1.1344500000000000E-01
atom   8.5743122947560000E+00 2.4420485440999999E+00 1.1142821900720019E+00 O 0.0 0.0 -7.2966699999999995E-01 -1.0532880000000000E+00 4.0029999999999996E-03
atom   5.8877120624399959E+00 2.1205674536200028E+00 1.1085308212640017E+00 O 0.0 0.0 -2.2142000000000001E-01 5.3446300000000002E-01 -5.2038000000000001E-02
atom   6.1463107599660027E+00 9.8021933633800025E+00 1.6667487237360004E+00 O 0.0 0.0 7.7027599999999996E-01 7.9220900000000005E-01 -1.5837000000000001E-01
atom   9.5531362762680025E+00 2.3967955492800033E+00 1.1565426179759986E+00 H 0.0 0.0 6.2400400000000000E-01 1.8017200000000000E-01 2.0423500000000000E-01
atom   5.1673866778169986E+00 9.8470604247400022E+00 1.6247974145120023E+00 H 0.0 0.0 -8.9093000000000000E-01 -8.4921999999999997E-02 -1.0990500000000000E-01
atom   8.1307377720270022E+00 1.2002673836999962E+00 1.4111864843039976E+00 C 0.0 0.0 1.1237000000000000E-02 1.4794959999999999E+00 -4.3692100000000000E-01
atom   6.5897851820579962E+00 1.1655886890999998E+00 1.3701536068959976E+00 C 0.0 0.0 2.6851000000000003E-01 -1.2915810000000001E+00 3.6675700000000000E-01
atom   7.5412391168790034E+00 5.1846745526399998E+00 1.6725001512560000E+00 O 0.0 0.0 -2.6249400000000001E-01 -5.8954300000000004E-01 1.1344500000000000E-01
atom   7.7998377052440011E+00 7.3810485441000004E+00 1.1142821900720019E+00 O 0.0 0.0 7.2966699999999995E-01 -1.0532880000000000E+00 4.0029999999999996E-03