################################################################################
# Symmetry function scaling data.
################################################################################
# Col  Name     Description
################################################################################
# 1    e_index  Element index.
# 2    sf_index Symmetry function index.
# 3    sf_min   Symmetry function minimum.
# 4    sf_max   Symmetry function maximum.
# 5    sf_mean  Symmetry function mean.
# 6    sf_sigma Symmetry function sigma.
#########################################################################################################################
#        1          2                        3                        4                        5                        6
#  e_index   sf_index                   sf_min                   sf_max                  sf_mean                 sf_sigma
#########################################################################################################################
         1          1   2.3953676722639696E+00   7.5507145862328295E+00   4.7211289849898268E+00   9.1469448885342897E-01
         1          2   4.7070961609927702E+00   1.2956254088277651E+01   8.2574964161495679E+00   1.5644170064930754E+00
         1          3   5.3356375363242092E+00   1.4021594284768074E+01   1.0072971059729730E+01   1.5884675385366838E+00
         1          4   6.7569533903089756E+00   7.0488384990208770E+00   6.9396242178777889E+00   1.7785525133328595E-02
         1          5   1.9923537267653776E-16   2.4606284923600338E-15   8.8300325178539897E-16   1.4021634584913237E-16
         1          6   3.1477315777500134E+01   5.2805148510167896E+01   4.3692914854404570E+01   4.2725549372284322E+00
         1          7   1.1181765036327494E+01   2.5922493743317123E+01   1.9636893815685298E+01   3.1069113327361828E+00
         1          8   1.8964269928505981E+01   4.6568095589020928E+01   3.4175290985708713E+01   6.0829497981849681E+00
         1          9   5.1468087170461967E+00   1.1795358768828843E+01   9.3917331740056564E+00   1.6856742906511890E+00
         1         10   2.4436227948923410E+01   5.2908266764805411E+01   4.1904927523659580E+01   5.8570467161509203E+00
         1         11   4.4733850689773000E+01   9.3250915674354545E+01   7.2678841967349427E+01   1.0689348873918405E+01
         1         12   4.9256134403156452E+01   1.0907513121525055E+02   8.3901516715221717E+01   1.2957224950871145E+01
         1         13   3.6538214810624595E+01   9.1114296069748306E+01   6.7252244352466590E+01   1.2533323991874395E+01
         1         14   7.9716879077809253E+00   2.0065025804035557E+01   1.5220758186034283E+01   1.9070725831173523E+00
         1         15   2.7673844489504864E+00   7.0359349035641108E+00   4.2816653140573200E+00   1.1280802520426312E+00
         1         16   3.3581561511163818E+00   3.7916844640305403E+00   3.5021558667427986E+00   4.4891560518775180E-02
         1         17   7.6927883861779289E+00   7.8340962378319521E+00   7.7643601404164846E+00   8.3787095886823197E-03
         1         18   7.6274625922783619E+00   1.6692040971342543E+01   1.2402777424649056E+01   1.5592391539218995E+00
         1         19   3.6427202160447663E+01   4.7200639757685813E+01   4.1086787875392439E+01   2.0497105788746088E+00
         1         20   9.0916224802086894E-03   5.8314519725445271E+00   2.4621630194523365E+00   1.5204485613707444E+00
         1         21   1.3478290915865198E+01   1.8061943056163464E+01   1.5876719166995974E+01   9.6235703642073589E-01
         1         22   4.1765230407714552E-05   5.6698872146828352E+00   1.9323721644471408E+00   1.7039724548333002E+00
         1         23   5.5905946314995738E+00   8.6798227020590506E+00   7.3385429096284174E+00   6.3630267771133386E-01
         1         24   3.4264900883923479E+00   6.1894809566293931E+00   4.8630934449834591E+00   5.1410477362323503E-01
         1         25   1.7883139941448530E+01   2.1308701506848912E+01   1.9172998963965913E+01   6.1396422478690549E-01
         1         26   1.2670901172486730E+00   1.6593566031803473E+00   1.4361227972187411E+00   8.4784865729118503E-02
         1         27   6.7045333355164238E-01   8.8727758317402383E-01   7.6023886445658073E-01   4.2794646282447106E-02
         1         28   3.7632786429287424E+00   4.1647980520198420E+00   3.9943800619161864E+00   4.8798817262543953E-02
         1         29   1.3871880830742065E+00   1.5380712387228841E+00   1.4556816124351930E+00   2.7958553412760052E-02
         1         30   8.0469425205704175E-09   1.7185679323338129E-02   3.7523642533088186E-03   4.2013670484595325E-03
         1         31   7.8784966700886966E-05   5.8535183472810436E-04   1.9540067184785909E-04   1.0482034419081549E-04
         1         32   1.4779258791985977E-02   1.7363430916204639E-02   1.6299331942585288E-02   2.0484688975912321E-04
         1         33   3.4076948307689540E-06   5.5133104694441425E-06   3.7847328043212029E-06   3.8134033600257207E-07
         1         34   1.3322260907135331E-11   4.2065068849098223E-10   5.1139541830053272E-11   6.0082186066533610E-11
         1         35   1.8321163790828787E-21   7.6108966154125264E-16   3.6410381228914027E-17   8.9349685079410419E-17
         1         36   2.8369298308800488E-26   1.1301614954384447E-24   5.8364724263522603E-26   1.0612243217928289E-25
         1         37   6.5660726909668866E-34   1.6769151333464257E-33   1.4236350274853473E-33   6.4803094666072591E-35
         1         38   6.6507059261005304E+02   2.2189485330665902E+03   1.4966791411395432E+03   3.2897408456609543E+02
         1         39   1.8192866321821225E+03   5.3157453735892786E+03   3.6296437816058137E+03   7.7803361733954534E+02
         1         40   1.4276241556476768E+02   4.8488713904687768E+02   3.5444624242748552E+02   6.4139815779553246E+01
         1         41   8.1664799907061229E+02   1.8697171862292803E+03   1.3541759700302368E+03   2.3228109752526382E+02
         1         42   1.6003622583518972E+01   1.5904167699140973E+02   9.7602191993262736E+01   3.0274052363862435E+01
         1         43   5.2614270714522081E+02   1.0590826834323639E+03   8.0689062160530602E+02   1.1720858510219553E+02
         1         44   3.4284850642031174E+01   1.9168032179397466E+02   1.3564629759498968E+02   2.7054625455304208E+01
         1         45   5.8246832090758254E+01   2.3729397973973946E+02   1.7738022261037759E+02   3.0987263236210968E+01
         1         46   5.3698491322990627E+00   9.3225955084389511E+01   5.4935065809673979E+01   2.0929280245868149E+01
         1         47   1.5973635111532184E+02   2.7593843490876048E+02   2.2002391020218764E+02   2.5127504256219048E+01
         1         48   9.1202179025126910E+01   2.4305875442685169E+02   1.6864523775414574E+02   2.9688413168379988E+01
         1         49   1.6217328594498190E+02   3.1743227695825465E+02   2.4128534611014049E+02   3.0431944061930274E+01
         1         50   2.0605528997663445E+00   4.5714567504907912E+01   2.9285548531649845E+01   9.0355099172064808E+00
         1         51   1.0194495170246178E+02   1.9705736015366074E+02   1.5035294643247281E+02   1.6796228873945683E+01
         1         52   2.5676543707092265E+00   2.7621553891077330E+01   1.9375997791248750E+01   4.4532281572758361E+00
         1         53   4.8679960984137786E+01   7.5354584734701277E+01   6.2115786749232676E+01   5.1542541590257613E+00
         1         54   6.7301730585673583E-02   1.9646565151633133E+01   8.7320522714240223E+00   5.6891698432037936E+00
         1         55   2.7276881949124075E+01   4.4294801048528626E+01   3.7076015535859398E+01   3.0620877323445996E+00
         1         56   9.7787439575209287E+00   2.4319554654914604E+01   1.7957967118838585E+01   2.4315996050137958E+00
         1         57   2.5813933013126086E+01   3.5154782471022287E+01   3.0777053568960913E+01   1.8227373574289962E+00
         1         58   7.9196375474479543E+00   1.2565370113530754E+01   1.0807710188906965E+01   7.9583402725390073E-01
         1         59   1.3287331286159883E+01   1.6212451586520395E+01   1.4534555053549040E+01   5.3298480354628397E-01
         1         60   1.2001099154260590E+00   1.3524066570042954E+00   1.2691953785141070E+00   2.9664958307884730E-02
         1         61   5.4566293954071386E-02   6.2672395375622095E-02   5.8427780404329194E-02   9.6890686601350262E-04
         1         62   4.6079834077939604E-03   5.3341369722380207E-03   5.2007709302939039E-03   5.2064781676509607E-05
         1         63   3.7530945761318974E-15   1.7840490335571372E-08   1.8501461154813792E-09   2.9700070578600667E-09
         1         64   4.1556040387621348E-05   5.4041311777098076E-05   4.9766392099479808E-05   9.1729480480273110E-07
         2          1   1.6905462016612616E+00   4.4412193400865014E+00   3.0240790043374872E+00   5.8094887587994237E-01
         2          2   5.6697310639269753E+00   6.1901493436492991E+00   5.8770249232221135E+00   5.6413757362864532E-02
         2          3   1.4094462194224002E+01   1.4407393812157148E+01   1.4240711384050782E+01   2.2697581642805296E-02
         2          4   5.7311639409449934E-08   5.1796606488012302E-07   2.1071105766039009E-07   2.9097490406124994E-08
         2          5   5.4976933684284030E-60   4.1653171271219949E-55   6.6628880573473655E-57   3.2552680195148788E-56
         2          6   1.0461911284254025E+01   2.6541836711220299E+01   1.9477312188491481E+01   3.4038941239341054E+00
         2          7   1.5726722664705628E+01   4.4997149018420245E+01   3.1063429812476720E+01   5.8718892572303725E+00
         2          8   1.0849602932446601E+01   2.0330220362232044E+01   1.5237015210558848E+01   1.9763284610303284E+00
         2          9   9.7446722201455334E+00   1.0256254695342202E+01   9.9493081599336470E+00   3.5003423136370421E-02
         2         10   1.1351668757727107E+00   1.7503146339806690E+00   1.4663954884881851E+00   3.8952294554216137E-02
         2         11   1.3457341265632013E-17   7.7335197100059253E-16   1.4914206899761039E-16   5.2039361986855985E-17
         2         12   2.6286904480345601E+01   5.5138162198941778E+01   4.4070233874305409E+01   6.0117763098501253E+00
         2         13   4.6413608301693017E+01   9.8338853182288076E+01   7.7689651797370360E+01   1.1615144564136651E+01
         2         14   4.5926788701102737E+01   1.1210360356460946E+02   8.3741046375175216E+01   1.4104393132842793E+01
         2         15   2.5958474876657569E+01   8.6278064935861508E+01   5.8164932651274682E+01   1.1416993234340660E+01
         2         16   1.2736247156745444E+01   3.8370543560447025E+01   2.6546143851062645E+01   5.0742694315996300E+00
         2         17   1.4576267224877389E+01   1.8398296391809232E+01   1.5845978036992191E+01   7.9814513964369260E-01
         2         18   9.4966033808489829E+00   9.6234829278015219E+00   9.5172734853742753E+00   1.5240314191365257E-02
         2         19   1.5946669500150744E+01   1.6341040690168750E+01   1.6222749841905131E+01   3.1722928795271020E-02
         2         20   3.1429754577631055E+01   3.4937436485203740E+01   3.3518025241134232E+01   2.8781140457036070E-01
         2         21   3.3838512629747633E+01   3.7583170243681522E+01   3.6036842260081819E+01   4.2069472406631958E-01
         2         22   1.8502405366645693E+01   2.0496961432606863E+01   1.9585753536233256E+01   2.0735409437431279E-01
         2         23   1.3717584528889370E+01   1.5232703603183451E+01   1.4490636518285138E+01   1.4020254530839232E-01
         2         24   8.2738880029274853E+00   9.2673499493002129E+00   8.7618722076298798E+00   9.1065856160620337E-02
         2         25   1.3413208087231377E+01   1.5198890400471072E+01   1.4439108064819003E+01   1.2282309453977913E-01
         2         26   5.9925014180541476E+00   6.7777276250025000E+00   6.4029298759094813E+00   5.9747613269565070E-02
         2         27   2.8310943220136592E-01   3.0819260895240391E-01   2.9769845629511310E-01   1.7720673313931924E-03
         2         28   3.6095385831383067E+00   4.1377518532376358E+00   3.8823388895379614E+00   3.9155396691746391E-02
         2         29   6.5432905162841184E+00   7.4419930576331952E+00   7.0378822708830082E+00   6.3731514816330201E-02
         2         30   1.2232152788787256E+00   1.4126656727443452E+00   1.3258526688378349E+00   1.2839053843076362E-02
         2         31   5.4884976002381014E-01   6.5785712935052565E-01   6.0773814148248806E-01   7.0007878330059928E-03
         2         32   7.1760066971171066E-03   8.8089598841625920E-03   8.0998598807859642E-03   1.0998437827399337E-04
         2         33   1.3702693241262412E-03   1.6817953850300641E-03   1.5828188646057825E-03   2.2063588165762888E-05
         2         34   2.4296374221172268E-07   4.7706292871306097E-07   3.5781391138835449E-07   1.6232689593485795E-08
         2         35   1.1190159332374119E-25   2.9735126510683805E-25   2.5348161603264663E-25   1.2590948250819176E-26
         2         36   9.4771889298230030E+02   2.6584589360840305E+03   1.7818542876722261E+03   3.7606869970910026E+02
         2         37   1.2079535230202352E+02   1.8986241385801424E+02   1.5298395640407898E+02   1.4264681852754977E+01
         2         38   4.4122720347776458E+01   8.2436927491161669E+01   6.4917635472273076E+01   6.8698931875022700E+00
         2         39   3.7317125695413864E+02   9.2934566532950384E+02   6.5639980864048368E+02   1.1730422799357508E+02
         2         40   5.9520004167472575E+02   1.4356741337967012E+03   1.0464698540857491E+03   1.8119359432813988E+02
         2         41   1.9213628946397188E+02   3.2482031744981987E+02   2.6349185227021246E+02   2.6888001356184340E+01
         2         42   6.9263135466584771E+01   9.7882601705776395E+01   8.2120341972687655E+01   5.5859504677123279E+00
         2         43   2.6955397576772714E+02   5.1314775209708750E+02   4.0371263524919340E+02   5.2094161006112969E+01
         2         44   4.3148235601694233E+02   1.0575798857651012E+03   7.4899186017917418E+02   1.3293605294324220E+02
         2         45   1.6755175482887842E+02   3.6299099121826538E+02   2.6273175709098541E+02   4.1310905051632204E+01
         2         46   9.8910037949473050E+01   2.0545310391415032E+02   1.5364193168855405E+02   2.2246755216006129E+01
         2         47   5.9081767157056817E+01   7.1068714282058394E+01   6.5839648877807804E+01   2.4564564154414428E+00
         2         48   2.5964268233469124E+01   3.0211910838014340E+01   2.7775540412311027E+01   7.8745686996280850E-01
         2         49   7.8427153654304496E+00   9.8840379548568436E+00   8.8564240275720909E+00   3.9281992690390954E-01
         2         50   8.1189961173164960E+01   1.0461325218528616E+02   9.3660520846635478E+01   4.9250444119458434E+00
         2         51   5.0671617989056607E+01   7.8200751130837460E+01   6.4742598383052723E+01   5.2999783329909338E+00
         2         52   1.2526241371300220E+01   1.3686001144688452E+01   1.3186974464825537E+01   1.6609856704629655E-01
         2         53   3.2761645377256516E+00   3.6591438399126242E+00   3.4556509536936444E+00   7.6709590576855460E-02
         2         54   2.2590729287071571E+01   3.0915085651492973E+01   2.6117927990833067E+01   1.6717395252360112E+00
         2         55   3.3899541108640292E+01   3.8356633983418803E+01   3.6352358001970977E+01   8.0780754128958343E-01
         2         56   3.7187371139477747E+01   4.5354063954258365E+01   4.1516958063526346E+01   1.5818035355256168E+00
         2         57   1.3101453428484938E+01   1.4423738766461787E+01   1.3856169286974087E+01   1.1847214137271493E-01
         2         58   4.9492530418425229E+00   5.3942219274879815E+00   5.2107310886934215E+00   3.3494063330801120E-02
         2         59   1.4861321284225387E+01   1.7005432215309881E+01   1.5787814463068162E+01   3.8590964055231758E-01
         2         60   9.9755127245894126E-01   1.0942048317855135E+00   1.0561026202258355E+00   9.4967467943312903E-03
         2         61   9.0094338896997623E+00   1.0244887439800445E+01   9.5151252887925146E+00   2.3048612379684016E-01
         2         62   5.9334385355475963E+00   6.6692487910064964E+00   6.3291066019657380E+00   7.2242182222223478E-02
         2         63   2.6819868760132453E+00   3.0605576402709844E+00   2.8729990195446344E+00   3.2265396368166430E-02
         2         64   2.1075769746993918E-03   2.5483460582380376E-03   2.3471580979428463E-03   3.2174512021351554E-05
         3          1   2.4798525978802730E+00   2.6865374227668983E+00   2.5763090406430496E+00   2.9315776394664688E-02
         3          2   3.3142791009488386E+00   8.5736036414055956E+00   5.9305215107891778E+00   1.0299336552450815E+00
         3          3   6.1117583961717097E+00   1.1647770397695270E+01   8.6236789513320655E+00   9.9886414059979223E-01
         3          4   4.9403802631096836E+00   7.1638626223204325E+00   5.7151229524246450E+00   3.4247250340318847E-01
         3          5   7.4995591495515712E-01   1.1884811494399208E+00   9.8820870705333685E-01   1.9588393618462048E-02
         3          6   2.8969297590059476E-17   7.5292242997240517E-08   2.1335213541273228E-08   2.1469338761348024E-08
         3          7   2.7499517145797367E-33   3.0757856154500422E-16   5.5187703236587454E-17   5.6567286460248893E-17
         3          8   4.1232700263213022E-60   5.6452727453093029E-31   4.9354445743048301E-32   5.6077418354265511E-32
         3          9   7.9173156386114210E+00   2.3819300239934101E+01   1.7638562199256004E+01   3.0685211349356258E+00
         3         10   1.4669724349062221E+01   4.3602935652588251E+01   3.2201867301637492E+01   5.8354034189008406E+00
         3         11   2.0456870242786260E-01   2.5052241994200469E-01   2.2696024643881735E-01   3.7739993655426999E-03
         3         12   2.1476614281449766E+00   4.1042401002059883E+00   3.0637126231921199E+00   4.8282596055030563E-01
         3         13   1.2761718900758478E+01   2.0241980911514379E+01   1.6852337320688260E+01   1.4018073060078040E+00
         3         14   2.5046357263274711E+01   5.5755591002463831E+01   4.3658205874087251E+01   6.0093906039252385E+00
         3         15   4.2726249216518610E+01   9.4714925978668560E+01   7.3573917613293162E+01   1.0849007408888092E+01
         3         16   3.6468038949989349E+01   1.0222620921740491E+02   7.6756176873563035E+01   1.2741954761681383E+01
         3         17   3.1814659139206977E+01   9.1275192348743701E+01   6.7275100463808712E+01   1.2356880510328681E+01
         3         18   1.7026308186259051E+01   3.0037036027957754E+01   2.2359988765289938E+01   2.1693872165392500E+00
         3         19   4.7519660595232205E+00   7.0776656533015254E+00   5.7785241000795091E+00   3.7910596828122473E-01
         3         20   2.6559558919359207E+00   5.8562545331741473E+00   4.1440477281786308E+00   1.0684373005011247E+00
         3         21   2.4443687702275799E+01   2.8961480690778235E+01   2.6649378663156931E+01   5.4832612971602857E-01
         3         22   2.3866486652611980E-04   1.7533645170755419E-01   9.4358052217493216E-02   4.5614873841114768E-02
         3         23   1.3560824932683524E+01   1.5646625058079712E+01   1.4718954957360628E+01   3.2061161076286426E-01
         3         24   8.1568184485605251E+00   9.5020674608311335E+00   8.7804024421052347E+00   2.2034832678452493E-01
         3         25   1.5693828682448885E-06   1.0504428052453650E-01   1.1529957091543041E-02   1.2285398594173361E-02
         3         26   9.9806082612098628E+00   1.1745189026952461E+01   1.1043033232481910E+01   2.2884285356702477E-01
         3         27   3.8897815338489978E-05   7.4129351183782638E-02   3.8627830522779509E-02   2.3106596641838850E-02
         3         28   5.8306369148548196E+00   6.7331877411321583E+00   6.3014911922798413E+00   9.6423280330463074E-02
         3         29   1.6172890642725517E+00   1.9528501423935321E+00   1.7634409058984082E+00   5.1795058392959656E-02
         3         30   1.0908299792190332E+00   1.3299752072058226E+00   1.2162376217780306E+00   1.6118396671185548E-02
         3         31   2.4216214460952408E-09   2.3130272374696013E-03   3.8482133335620980E-04   2.8827043707484862E-04
         3         32   1.7321180757414097E-11   1.3287342416748527E-04   6.6339289198080186E-05   4.9541621878980534E-05
         3         33   1.4805440604936868E-02   2.8365466543236295E-02   2.1988950484921169E-02   3.8758209931789743E-03
         3         34   2.7413618241648902E-17   1.0166604373971840E-06   4.2565243658518017E-07   4.2527576032008277E-07
         3         35   1.6734926485633314E-11   5.3433092189073000E-11   3.2729247025620270E-11   3.7864701547471954E-12
         3         36   3.1320514159570574E-18   1.7479315921716242E-17   8.2341083756148188E-18   1.2193860662999314E-18
         3         37   4.4787905508882013E-28   3.1125905779280882E-24   1.3262193383760288E-24   1.3276738997326294E-24
         3         38   7.8678997689884312E+01   3.2754383633472423E+02   2.1834537059817464E+02   4.9559965925743533E+01
         3         39   2.5661088835104877E+01   1.3915377410865284E+02   9.3010244785684691E+01   2.2563220817912114E+01
         3         40   6.4806983980863026E+02   1.7136822119364310E+03   1.1974652144515367E+03   2.2263554263795987E+02
         3         41   8.4471013562178143E+00   7.8807278477221971E+01   4.4331183077519128E+01   1.4324672960317530E+01
         3         42   4.0668454491307079E+02   9.6198223723245826E+02   7.0138967015451055E+02   1.1405668871404501E+02
         3         43   2.8736183926384257E+02   1.2542303899404835E+03   8.1793517080999118E+02   1.9436369675377307E+02
         3         44   3.1883946145187963E+01   1.3959875054265171E+02   9.2212882311075603E+01   2.0865949570765519E+01
         3         45   4.3908212219357517E+02   1.2149882862958093E+03   8.4141491947590782E+02   1.5732536622272184E+02
         3         46   9.3265354424630814E+01   3.7933660907980294E+02   2.4474036413633056E+02   5.4645433979558184E+01
         3         47   1.8228471082848296E+02   4.0542814269038752E+02   2.9984469351602098E+02   4.4541980674512153E+01
         3         48   1.0657402599431844E+00   2.0192498798833292E+01   9.0312753051623282E+00   3.6312839398341556E+00
         3         49   4.9127552802921572E+00   2.5438115756459037E+01   1.6127499683132893E+01   3.6533035671418763E+00
         3         50   9.7791379929033961E-01   1.1759998274758969E+01   6.6966244861877326E+00   1.9783659331547299E+00
         3         51   5.9116485809585377E+01   1.0651622788747530E+02   8.3436082658569418E+01   8.9164091622889412E+00
         3         52   1.3670012627694948E+01   4.2124940602493382E+01   2.7532873794088278E+01   4.7993043244343454E+00
         3         53   5.8116487599958539E+01   9.1788550886692590E+01   7.4127910598290526E+01   6.8877516558185272E+00
         3         54   2.9260981062194695E+01   3.8900684998689137E+01   3.3444222264197769E+01   1.7777204733637044E+00
         3         55   1.3852904921927794E-01   1.4378875699355007E+00   8.4564311940621606E-01   2.8325369731145661E-01
         3         56   1.3819824171344463E-02   6.5163908727149666E-01   2.9499448860752175E-01   1.1023930781981259E-01
         3         57   1.5639875637512656E+01   1.9716117656710079E+01   1.7677982119353743E+01   7.9511546585949144E-01
         3         58   1.7380955282623122E-03   4.7242114873509056E-01   1.2263450668268751E-01   7.9593418911118527E-02
         3         59   9.5003354210123678E+00   1.2238256052602669E+01   1.0840563423065637E+01   4.6725307041479480E-01
         3         60   7.6823548903905685E+00   9.1624605346661117E+00   8.4911574806553531E+00   1.8361460155442000E-01
         3         61   2.5084772398881588E-05   6.5317230711405522E-02   1.0878620518989579E-02   8.5060063594026535E-03
         3         62   2.7082834453092417E+00   3.1796994330078610E+00   2.9190431284059177E+00   7.4752986390240000E-02
         3         63   1.0767238235081334E-07   4.2282259562082735E-03   5.7678825646450931E-04   4.9673946149244490E-04
         3         64   1.2849234153331657E-03   1.9970398808332505E-03   1.6536586894059383E-03   6.7850955820660937E-05
