################################################################################
# Symmetry function scaling data.
################################################################################
# Col  Name     Description
################################################################################
# 1    e_index  Element index.
# 2    sf_index Symmetry function index.
# 3    sf_min   Symmetry function minimum.
# 4    sf_max   Symmetry function maximum.
# 5    sf_mean  Symmetry function mean.
# 6    sf_sigma Symmetry function sigma.
#########################################################################################################################
#        1          2                        3                        4                        5                        6
#  e_index   sf_index                   sf_min                   sf_max                  sf_mean                 sf_sigma
#########################################################################################################################
         1          1   1.8054342119571301E+00   8.2237409223096964E+00   4.5753393313385065E+00   1.0492305439491620E+00
         1          2   3.2194628563768557E+00   1.3761437922320997E+01   7.7576293443288185E+00   1.7058969114925995E+00
         1          3   4.9607964524794568E+00   1.6141300000229869E+01   9.4390790054795612E+00   1.5949304298911764E+00
         1          4   6.7569533903089729E+00   7.2718477450801746E+00   6.9416320218717038E+00   1.3746459650357104E-02
         1          5   1.9923537267653490E-16   2.4606284923599987E-15   8.8069460375259553E-16   5.2216933573419389E-17
         1          6   2.6567848619118596E+01   5.9875556183063793E+01   4.3432001612911655E+01   4.5472423609078430E+00
         1          7   6.1879394834357830E+00   2.6482589000495253E+01   1.9917350136500698E+01   2.7367694745607265E+00
         1          8   1.0681974567156189E+01   5.0561977730710559E+01   3.4522021806958314E+01   5.8802400597622668E+00
         1          9   5.1415006360361293E+00   1.7591710987190915E+01   9.7541868453732441E+00   1.9805372029401991E+00
         1         10   1.9195388578553622E+01   6.0914053308344577E+01   4.2615636650695905E+01   5.3054007230396154E+00
         1         11   3.2506832791688652E+01   1.0268499754226900E+02   7.3961480209463929E+01   8.7930976030689081E+00
         1         12   2.7670905947570741E+01   1.1172207854133462E+02   8.5117197863425247E+01   1.1210329716062290E+01
         1         13   1.9941139896629576E+01   1.0308285476673230E+02   6.7618021104123898E+01   1.2119410647754796E+01
         1         14   7.8812971994815646E+00   2.5884124046037396E+01   1.4764267051759449E+01   2.0970748967024742E+00
         1         15   2.7673844489504917E+00   1.1371327497794237E+01   5.2347064732665345E+00   2.2335491261752964E+00
         1         16   3.3581561511163827E+00   1.0762254941199036E+01   3.7758366458365606E+00   8.2693968732073830E-01
         1         17   7.6927883861779307E+00   9.1968742648502797E+00   7.7726942971823521E+00   6.3268401542004415E-02
         1         18   6.9236742284813788E+00   3.9547051765007048E+01   1.3526779057443095E+01   3.8415708487799698E+00
         1         19   3.5310953922021625E+01   7.2257812953706960E+01   4.2034539561237196E+01   3.9448283720715205E+00
         1         20   2.7392199709920240E-03   2.1453793338854069E+01   3.5840854043398629E+00   3.0285797432447907E+00
         1         21   1.3205532451048313E+01   2.6679051375334662E+01   1.6565346741027611E+01   1.9959166575067022E+00
         1         22   1.3477510067163794E-06   2.0691389839631544E+01   2.8722159808798406E+00   2.8672876993147955E+00
         1         23   5.4072755221818456E+00   1.5130015298458583E+01   7.7851242364400628E+00   1.3020227818162970E+00
         1         24   3.2914237536264404E+00   1.6908297856696805E+01   5.4290538144456404E+00   1.6272999250665345E+00
         1         25   1.7670984253309079E+01   3.1818507323140910E+01   1.9634510405601816E+01   1.4472463100681172E+00
         1         26   1.2574712392566139E+00   3.1227449869671009E+00   1.5354166740273163E+00   2.4347440248761437E-01
         1         27   6.6783348908519835E-01   3.3581285767178657E+00   8.4939762463734136E-01   2.3705285718460556E-01
         1         28   3.7632786429287419E+00   5.9073698593731780E+00   4.0626864111210406E+00   1.7461780258930351E-01
         1         29   1.3871880830742063E+00   2.4388529340212055E+00   1.4996393420045757E+00   1.0630953345275684E-01
         1         30   3.2639678717485888E-09   4.1247263271637735E-01   1.3088931973561955E-02   2.9288646984746966E-02
         1         31   7.8685001714764327E-05   4.2359161816570741E-02   9.2746648323007688E-04   2.6417846662529806E-03
         1         32   1.4779258791985970E-02   3.5309990522206840E-02   1.6568979562135676E-02   8.5425803528256701E-04
         1         33   3.4076948307689739E-06   1.4449238645984242E-03   1.4222595679106800E-05   5.4897119737026534E-05
         1         34   1.3322260907135380E-11   3.9175999686101740E-06   1.6133913211213766E-08   1.3541247296210538E-07
         1         35   1.8321163790828964E-21   4.6334323082567322E-10   1.0285481364602942E-12   1.3749846657358663E-11
         1         36   2.8369298308801211E-26   1.6242774285199030E-14   3.5523236576758892E-18   1.7444440226150506E-16
         1         37   6.5660726909668379E-34   6.6991385620201249E-21   7.1605134101707737E-25   5.7251245059028296E-23
         1         38   4.6377161706655397E+02   2.8763609175494676E+03   1.4902221366441825E+03   3.2787470679646196E+02
         1         39   1.1302460943172375E+03   6.8369451197591352E+03   3.5991090103446377E+03   7.6374997014309167E+02
         1         40   1.2305751891273408E+02   6.6460292590313634E+02   3.5995476380622625E+02   6.7515740089656106E+01
         1         41   5.6522702914378908E+02   2.3871639030699871E+03   1.3428013424855928E+03   2.3593683409019266E+02
         1         42   1.2939626533104706E+01   2.0948154101966725E+02   1.0413309683898017E+02   3.1232052620470292E+01
         1         43   3.9236607975811552E+02   1.3447312884622024E+03   7.9990041768716151E+02   1.2064657656307243E+02
         1         44   3.0784933831013170E+01   2.6765699447408798E+02   1.4263784176055694E+02   2.9697538306035433E+01
         1         45   5.3320956951273644E+01   3.3962445934873563E+02   1.8196979595483290E+02   3.4777292668729174E+01
         1         46   5.1419827719860507E+00   1.2781172888414113E+02   6.0079729667730994E+01   2.2066497430199149E+01
         1         47   1.2192077400983952E+02   3.3875160745349757E+02   2.1826330884874486E+02   2.7903154569242520E+01
         1         48   6.1306638702297398E+01   3.3984795296782579E+02   1.6803548296169052E+02   3.5401689077739320E+01
         1         49   1.3365092136263570E+02   4.0553621423055802E+02   2.4008781906466737E+02   3.5231666421687130E+01
         1         50   2.0605528997663485E+00   7.6999820527301097E+01   3.2940011612155736E+01   1.1516465006652165E+01
         1         51   8.9548700977763446E+01   2.5706372730191691E+02   1.4971329924314864E+02   2.1300121147790509E+01
         1         52   1.8764200059768212E+00   5.3509716988705321E+01   2.1511066600177859E+01   7.1906939525386679E+00
         1         53   4.0185100919530470E+01   9.6253084769991844E+01   6.2627034598068107E+01   7.0143554819236860E+00
         1         54   5.9548738146416418E-02   3.9184222302686393E+01   1.0649862283686028E+01   6.8639394674933252E+00
         1         55   2.2879031299351276E+01   5.6938643938292905E+01   3.7358399184217390E+01   4.1737182973742639E+00
         1         56   7.4471897301680894E+00   4.6894564438182243E+01   1.8818092189873187E+01   4.4808855643871288E+00
         1         57   2.3420333529590135E+01   4.7934342458333056E+01   3.1412724069263884E+01   3.1050416282457327E+00
         1         58   7.0668560158991047E+00   1.9511806419506875E+01   1.1124734194208939E+01   1.3892817446645651E+00
         1         59   1.2850965618586070E+01   2.3523065046763698E+01   1.4829349321256018E+01   1.1151233000257716E+00
         1         60   1.2001099154260579E+00   2.1152036074080867E+00   1.3101476866086981E+00   9.9861387853910757E-02
         1         61   5.4566293954071525E-02   1.1176558926237304E-01   6.0370634950959762E-02   5.0006350222109204E-03
         1         62   4.6079834077939570E-03   1.8399949314768401E-02   5.3304600703862033E-03   5.1978506148703729E-04
         1         63   3.7250733141643579E-15   3.1327263397140653E-05   1.6918704718323202E-07   1.1552650007532533E-06
         1         64   4.1556040387621348E-05   1.7124334286271000E-04   5.0012994725129742E-05   2.0480993023742392E-06
         2          1   1.5167400368986506E+00   6.0143633268427550E+00   2.9666204722543732E+00   6.3921329958942896E-01
         2          2   5.6697310639269718E+00   9.5393876815930021E+00   5.9522966659384684E+00   2.6618565777954978E-01
         2          3   1.4094462194224000E+01   1.4407393812157158E+01   1.4240260098323148E+01   9.2934699604096931E-03
         2          4   5.7311639409449107E-08   5.1796606488013043E-07   2.0992322272764691E-07   1.1265861985485742E-08
         2          5   5.4976933684280902E-60   4.1653171271221130E-55   4.3923011725044475E-57   1.2029791468110351E-56
         2          6   6.7839999499816033E+00   2.9003275777340242E+01   1.9526369673361991E+01   3.2246358546539269E+00
         2          7   9.0867556022866971E+00   5.0198516829763435E+01   2.9984756592406672E+01   5.9850406156066205E+00
         2          8   1.0287173306808324E+01   2.6715332919328024E+01   1.5234840784021573E+01   2.3407835062576070E+00
         2          9   9.7446722201455334E+00   1.2572949025657431E+01   9.9559626585516963E+00   5.9448576318699820E-02
         2         10   1.1351668757727085E+00   1.7503146339806752E+00   1.4673834417191898E+00   1.5064555379037576E-02
         2         11   1.3457341265631726E-17   7.7335197100062014E-16   1.4632084498012650E-16   1.9686772919053243E-17
         2         12   2.4205871064070458E+01   5.9938614528872201E+01   4.5483333385263698E+01   4.9566150176866977E+00
         2         13   3.9689323717634096E+01   1.0981833775788444E+02   8.0616790583395044E+01   9.7334299404073512E+00
         2         14   3.0763119986210096E+01   1.2402450022952137E+02   8.4184864466167980E+01   1.3224231462976453E+01
         2         15   1.7235584949805158E+01   9.6624497692855570E+01   5.5510954669306201E+01   1.1901243229237577E+01
         2         16   9.9959536205535091E+00   4.9353663383952934E+01   2.5615487980408997E+01   5.5924786879519131E+00
         2         17   1.4479233547066096E+01   2.5191083027474178E+01   1.6143301374359478E+01   1.3753799791569543E+00
         2         18   9.4966033808489829E+00   1.4963656326097388E+01   9.5640720656591416E+00   2.0765699058890064E-01
         2         19   1.5946669500150753E+01   1.6341040690168757E+01   1.6226620064801377E+01   1.2089818722398369E-02
         2         20   3.1429754577631062E+01   4.1795631295598071E+01   3.3648211479249717E+01   5.1070932610685305E-01
         2         21   3.3838512629747619E+01   4.6367598220094486E+01   3.6392384412755646E+01   1.0063813523501641E+00
         2         22   1.8502405366645689E+01   2.4127317425304682E+01   1.9789607089325017E+01   5.1677931772074592E-01
         2         23   1.3717584528889372E+01   1.7132481800043664E+01   1.4627728224897039E+01   3.3786477502400208E-01
         2         24   8.2738880029274817E+00   1.0566678561902025E+01   8.8466451448623786E+00   2.1245599419403308E-01
         2         25   1.3413208087231377E+01   1.7300306120080847E+01   1.4478557927130000E+01   1.3620016196028556E-01
         2         26   5.9925014180541485E+00   7.3526641375929112E+00   6.4536949250617583E+00   1.2156587090641691E-01
         2         27   2.8310943220136642E-01   3.0819260895240408E-01   2.9781149218789860E-01   6.7929787285702877E-04
         2         28   3.6095385831383062E+00   4.5877172299502060E+00   3.9134584724437103E+00   7.7680508325820047E-02
         2         29   6.5432905162841140E+00   8.3219974995599610E+00   7.0838644770347265E+00   1.0660043980558775E-01
         2         30   1.2232152788787254E+00   1.5330282570915759E+00   1.3338204827283504E+00   1.9328874036882278E-02
         2         31   5.4884976002381047E-01   6.9977712043711315E-01   6.1118963340749166E-01   8.9896531941523906E-03
         2         32   7.1760066971171127E-03   8.8089598841625798E-03   8.1060946498023242E-03   4.1742521547929079E-05
         2         33   1.3702693241262418E-03   1.7296818793771547E-03   1.5858914508238954E-03   9.4413890715793585E-06
         2         34   2.4296374221172210E-07   4.7706292871306097E-07   3.5860644125123989E-07   6.1532080567295377E-09
         2         35   1.1190159332374126E-25   2.9735126510683810E-25   2.5514788065162818E-25   5.0545309633974974E-27
         2         36   5.9342860046000942E+02   3.5466592757527137E+03   1.7566018829205025E+03   3.8706509450372238E+02
         2         37   9.4244124063331995E+01   2.3605527239170758E+02   1.5135626827650549E+02   1.7126881020412437E+01
         2         38   3.4777579442031140E+01   1.0805863198798468E+02   6.4288448362845401E+01   9.4136374864507335E+00
         2         39   2.6647541718256974E+02   1.2496839217775025E+03   6.5152597386486218E+02   1.2607188218540190E+02
         2         40   4.6654236806266937E+02   1.8399126712746149E+03   1.0295470759249276E+03   1.8323111184070149E+02
         2         41   1.7117945934976342E+02   3.9824865946192097E+02   2.6027517947346223E+02   2.9801809463321444E+01
         2         42   5.9033457689505653E+01   1.1520329921659867E+02   8.1527490056691832E+01   6.8961515346071707E+00
         2         43   2.4079302048925157E+02   6.3835830730663918E+02   3.9742744030248531E+02   5.4432137919165370E+01
         2         44   3.2956792345600115E+02   1.4108976343644704E+03   7.3137102807044630E+02   1.4295842823681545E+02
         2         45   1.2102684575191358E+02   4.9596157488338554E+02   2.5746696898371448E+02   4.7168314702274358E+01
         2         46   7.3637294301745683E+01   2.8231057003961337E+02   1.5153395328947641E+02   2.6161131414287386E+01
         2         47   5.7537058009471934E+01   7.8597927729514581E+01   6.5637198245065548E+01   2.8557305097965764E+00
         2         48   2.4829921616051724E+01   3.3385342125435393E+01   2.7744802127389566E+01   1.0036392419837799E+00
         2         49   7.5232042475888772E+00   1.2298401177037663E+01   8.8602258542836534E+00   5.6010859731128038E-01
         2         50   7.9054220355476502E+01   1.2212057364519265E+02   9.3363435890451925E+01   5.7606180304075183E+00
         2         51   4.3680832998657742E+01   1.0160871763560810E+02   6.4240412209463628E+01   6.9702366392575641E+00
         2         52   1.2526241371300221E+01   1.4454094692036890E+01   1.3198147956632139E+01   2.0764881875894087E-01
         2         53   3.2515990421805614E+00   4.4369009234562107E+00   3.4639475035765490E+00   1.0901482972043386E-01
         2         54   1.9055065496571867E+01   3.8947985133099358E+01   2.6116468134992342E+01   2.4365690403876559E+00
         2         55   3.3899541108640271E+01   4.5821598719163497E+01   3.6425046813546324E+01   1.1090643428378562E+00
         2         56   3.5615956783466586E+01   5.5992044528281760E+01   4.1691190806262220E+01   2.4067402934063420E+00
         2         57   1.3101453428484938E+01   1.5077831771682257E+01   1.3875149377476976E+01   1.3262482167316264E-01
         2         58   4.9492530418425247E+00   5.4146546720827127E+00   5.2164453581115779E+00   2.7477251209472735E-02
         2         59   1.3998524346890939E+01   2.0146304892393552E+01   1.5900566555252105E+01   7.3596770192153083E-01
         2         60   9.9755127245894248E-01   1.1961807895216530E+00   1.0583066654513367E+00   1.1608047417928459E-02
         2         61   8.5303104023507714E+00   1.2855879122128449E+01   9.6034745094829574E+00   4.5442007826131725E-01
         2         62   5.9334385355475936E+00   7.7097499635893536E+00   6.3865479925527344E+00   1.6679303249591770E-01
         2         63   2.6819868760132430E+00   3.5338348070275885E+00   2.9004554572670047E+00   7.4198249560632493E-02
         2         64   2.1075769746993901E-03   2.5805176746053903E-03   2.3522530449551675E-03   1.6039505287722857E-05
         3          1   2.4798525978802766E+00   3.1609272568234608E+00   2.5906882446648654E+00   6.0127161288494310E-02
         3          2   2.2363565011800604E+00   1.0319804816320850E+01   5.6559840893559059E+00   1.2047764276264969E+00
         3          3   5.3551996800726975E+00   1.5600967592354413E+01   8.5232394237510753E+00   1.2882253268455295E+00
         3          4   4.8928968557143886E+00   1.1840588126897400E+01   5.8197042579718792E+00   5.4944822255967851E-01
         3          5   7.4995591495515490E-01   1.1884811494399246E+00   9.8870428113333197E-01   7.7459477327166707E-03
         3          6   2.8969297590058440E-17   7.5292242997239974E-08   2.1350336271057257E-08   2.1369071940647347E-08
         3          7   2.7499517145795800E-33   3.0757856154499983E-16   5.5043412734537233E-17   5.5237309297629320E-17
         3          8   4.1232700263210673E-60   5.6452727453091427E-31   4.8533555592024791E-32   4.9526980089542292E-32
         3          9   4.4531629281730645E+00   2.6009990856000769E+01   1.8006621400953890E+01   2.7209495696157098E+00
         3         10   8.9312854428201085E+00   4.5181296650971198E+01   3.2432563746587398E+01   5.3938276274718424E+00
         3         11   2.0456870242786240E-01   2.5261105333788925E-01   2.2734814170537535E-01   3.6585103283891507E-03
         3         12   2.1476614281449775E+00   6.1458025125838818E+00   3.1042656603380983E+00   5.0998917601580884E-01
         3         13   1.1390216063157922E+01   2.3163260923215958E+01   1.6721214011996871E+01   1.5964557588470247E+00
         3         14   2.1030800619017288E+01   6.2451504652085589E+01   4.4377036261522356E+01   5.3709901177574624E+00
         3         15   3.1300027932009826E+01   1.0546712422489166E+02   7.4982115061775403E+01   9.1641344287458413E+00
         3         16   2.1379923805302692E+01   1.0999870429092182E+02   7.8282277137390125E+01   1.1139367778840100E+01
         3         17   2.1564207783938276E+01   9.8491679520422366E+01   6.6995889422261726E+01   1.1701002421036792E+01
         3         18   1.5731831319023458E+01   4.1517574538542725E+01   2.2375305621075452E+01   2.9295501198439680E+00
         3         19   4.7336861568093038E+00   1.2098761564754584E+01   5.8550549485563916E+00   5.2922448159195457E-01
         3         20   2.5783752502409660E+00   9.3299227957416910E+00   4.2314759525559529E+00   1.0873866368880865E+00
         3         21   2.4443687702275827E+01   4.3640800681961650E+01   2.6939642799462714E+01   1.1687319586576850E+00
         3         22   1.9378687919636647E-04   1.3040774802806423E+00   1.0982929025286182E-01   7.6759122796741575E-02
         3         23   1.3560824932683538E+01   2.2884258438289219E+01   1.4919136288709407E+01   6.7047534427768618E-01
         3         24   8.1154338693200998E+00   1.3415664130426078E+01   8.9519414512761077E+00   5.0615660949039176E-01
         3         25   1.9039975021878745E-07   8.1070134868691290E-01   1.6660836130679722E-02   3.4499582765593152E-02
         3         26   9.9806082612098805E+00   1.5717490019568569E+01   1.1155564078766963E+01   3.7461371240528230E-01
         3         27   3.3601813826526181E-05   5.2136942053837509E-01   4.4527990606396943E-02   3.1478999410913644E-02
         3         28   5.8306369148548249E+00   8.7353531749081146E+00   6.3851640671736360E+00   2.2943438393847548E-01
         3         29   1.6172890642725537E+00   2.7073164713496047E+00   1.7974196316959548E+00   9.7539551206721573E-02
         3         30   1.0908299792190335E+00   1.5639642455532370E+00   1.2283256823178477E+00   3.0699876313419430E-02
         3         31   3.4557661253808848E-10   6.1721634860131255E-02   6.5888123021569454E-04   1.7883510433450436E-03
         3         32   4.0038817691436080E-12   9.5606139457368473E-03   9.9236634497266302E-05   2.2584106539512750E-04
         3         33   1.4805440604936847E-02   3.5706886285908519E-02   2.2130954686746619E-02   3.8898692581671428E-03
         3         34   2.6935890522644811E-17   6.3931246848393885E-06   4.3749045700813167E-07   4.2914382718536067E-07
         3         35   1.6734926485633276E-11   9.3787456588394968E-09   3.4136678412930442E-11   7.0338125013240638E-11
         3         36   3.1320514159570420E-18   2.5281266102879858E-13   2.6671445903780932E-17   1.5866491918112383E-15
         3         37   4.4787905508882067E-28   2.8631312113188990E-19   1.6352439498117480E-23   1.6351158607314674E-21
         3         38   4.7996272581528672E+01   4.4618168464842921E+02   2.1626632627424274E+02   5.3336298649099355E+01
         3         39   1.9019379168370286E+01   2.0052963298678017E+02   9.2070297770695390E+01   2.5023006524010054E+01
         3         40   4.1978125863979585E+02   2.2255437099910346E+03   1.1861152713710353E+03   2.2788195996150353E+02
         3         41   6.0171253481391318E+00   1.1301816991323635E+02   4.3934902373645642E+01   1.4938998976035331E+01
         3         42   2.8482328373484251E+02   1.2558063731035850E+03   6.9597631990783918E+02   1.1922177825381715E+02
         3         43   1.9218882956362825E+02   1.6628964032615090E+03   8.0802479531231972E+02   1.9621250827986708E+02
         3         44   2.0782067931194881E+01   1.9691103819652116E+02   9.1058985235898149E+01   2.3293184275299648E+01
         3         45   3.1188817605615958E+02   1.5766450709271164E+03   8.3021951537251732E+02   1.6328832687031795E+02
         3         46   7.4757565054580112E+01   5.0634939693071561E+02   2.4005248997467342E+02   5.8201175062541310E+01
         3         47   1.4438968524745999E+02   5.2334812229639977E+02   2.9639569260080435E+02   4.8358546434107502E+01
         3         48   6.8361845213930861E-01   3.2390129161527476E+01   8.9361044643297927E+00   3.9101812244844516E+00
         3         49   2.5546446247513264E+00   4.2015128345058045E+01   1.5934221379295346E+01   4.3840667846052126E+00
         3         50   6.5302246638941264E-01   2.3217191361870164E+01   6.6399155810878216E+00   2.3884548037115607E+00
         3         51   4.8594255544219315E+01   1.3170438202079342E+02   8.2968113844412528E+01   1.0309516970193020E+01
         3         52   1.0250512143398138E+01   5.6548282911534073E+01   2.7182104427852373E+01   5.7212736531666035E+00
         3         53   5.0762974060399145E+01   1.2090812355178258E+02   7.3864778655480279E+01   8.4811365472191564E+00
         3         54   2.7462545073368599E+01   5.6029148132550240E+01   3.3578654184788306E+01   2.6224737230509576E+00
         3         55   5.4837803942530787E-02   2.9720751015099447E+00   8.7307015846786029E-01   3.2251368173158901E-01
         3         56   5.1091736886240838E-03   2.2692262416419418E+00   3.1117225609106114E-01   1.5850880853803334E-01
         3         57   1.4804558481585383E+01   2.7377783058763967E+01   1.7824112536272992E+01   1.1872907998182936E+00
         3         58   6.5266684294940428E-04   1.8676510091071468E+00   1.3118299781939446E-01   1.1623779675895055E-01
         3         59   9.0007659667401185E+00   1.5532731609434030E+01   1.0974329253096540E+01   7.6758937518131942E-01
         3         60   7.6823548903905809E+00   1.2408707301642542E+01   8.5718293952025348E+00   3.3635691503207843E-01
         3         61   6.8617565458907114E-06   4.2053194025954793E-01   1.3370481808282134E-02   1.9142008904584118E-02
         3         62   2.6747089599274299E+00   4.4261354839465206E+00   2.9736171610697180E+00   1.6615598430799172E-01
         3         63   1.0264583677819644E-08   6.3571411738611597E-02   8.8823759200789415E-04   2.0670696141917677E-03
         3         64   1.2849234153331673E-03   3.1232764874761067E-03   1.6691783123766342E-03   7.8683731503498812E-05
